[ Conformation_0 ]
2005 2015 2019 2022 2023 2024 2038 2060 2300 2301 2302 2304 2309 2312 2315 2320 2321 2322 2329 2330
2333 2334 2336 2338 2339 2340 2341 2342 2343 2344 2347 2348 2350 2352 2353 2362 2366 2370 2373 2374
2375 2376 2379 2382 2383 2388 2389 2390 2397 2398 2399 2413 2439 2440 2441 2625 2652 2653 2658 2660
2661 2663 2665 2666 2667 2668 2669 2670 2671 2673 2675 2682 2853 2880 2882 2883 2895 2896 2899 2900
2903 2904 2913 2914 2915 2916 2918 2923 2931 2932 2933 2934 2935 2943 2944 2953 2965 2977 2990 2991
2993 2996 2998 3003 3004 3015 3018 3021 3024 3033 3034 3049 3051 3064 3065 3069 3070 3079 3080 3081
3082 3085 3086 3087 3088 3089 3092 3097 3102 3103 3210 3211 3213 3216 3217 3219 3220 3221 3222 3223
3224 3226 3227 3229 3230 3231 3236 3238 3239 3240 3242 3243 3244 3245 3246 3251 3258 3259 3261 3266
3267 3269 3271 3275 3276 3278 3279 3283 3286 3287 3288 3291 3293 3295 3296 3309 3310 3311 3312 3313
3314 3317 3318 3319 3320 3321 3322 3323 3324 3325 3326 3327 3329 3342 3346 3359 3360 3362 3363 3368
3369 3374 3375 3380 3381 3382 3384 3387 3390 3391 3392 3393 3394 3395 3396 3397 3398 3399 3402 3405
3406 3407 3408 3409 3413 3417 3418 3419 3421 3423 3424 3426 3427 3428 3441 3442 3443 3445 3460 3470
3471 3472 3473 3474 3475 3476 3477 3478 3480 3481 3483 3484 3485 3486 3488 3489 3490 3494 3496 3513
3516 3519 3521 3523 3524 3525 3526 3527 3528 3530 3531 3532 3533 3535 3536 3537 3538 3542 3543 3545
3549 3551 3552 3553 3554 3555 3560 3561 3580 3581 3582 3583 3588 3589 3590 3592 3596 3599 3600 3601
3602 3603 3604 3606 3608 3611 3612 3613 3614 3615 3624 3627 3630 3636 3638 3639 3640 3642 3643 3645
3647 3648 3656 3659 3664 3671 3673 3679 3680 3686 3687 3691 3692 3693 3694 3695 3698 3700 3708 3716
3721 3723 3734 3737 3743 3744 3748 3750 3751 3753 3754 3755 3756 3757 3758 3760 3761 3762 3763 3770
3771 3774 3775 3779 3780 3781 3783 3793 3794 3795 3799 3800 3804 3805 3814 3816 3819 3820 3821 3822
3825 3828 3833 3836 3837 3838 3839 3840 3841 3844 3845 3846 3847 3849 3850 3851 3852 3853 3854 3855
3856 3859 3860 3862 3863 3864 3865 3866 3867 3868 3869 3870 3871 3872 3873 3874 3875 3879 3880 3881
3882 3887 3888 3889 3890 3892 3896 3919 3920 3921 3924 3950 3951 3955 3964 3965 3966 3967 3968 3970
3981 3983 3986 3987 3988 3989 3991 3992 3993 3994 3995 3996 3998 3999 4000

[ Conformation_1 ]
2000 2001 2002 2142 2192 2196 2332 2345 2346 2408 2436 2534 2535 2555 2607 2627 2633 2638 2639 2640
2641 2642 2643 2648 2650 2692 2758 2759 2803 2805 2806 2807 2808 2809 2810 2835 2850 2852 2897 2898
2936 2949 2950 2957 2958 2960 2967 3053 3054 3101 3115 3116 3120 3122 3123 3124 3126 3128 3132 3138
3145 3157 3168 3173 3176 3180 3181 3183 3184 3185 3186 3187 3218 3225 3228 3232 3233 3248 3255 3256
3262 3277 3304 3328 3330 3331 3332 3333 3334 3383 3411 3414 3415 3416 3429 3430 3431 3440 3444 3446
3448 3449 3450 3452 3453 3454 3468 3469 3482 3522 3548 3559 3565 3621 3658 3670 3674 3678 3682 3683
3688 3689 3690 3696 3697 3699 3701 3702 3709 3710 3711 3713 3717 3720 3727 3728 3730 3731 3733 3739
3740 3742 3745 3746 3747 3749 3752 3878 3926 3956

[ Conformation_2 ]
2009 2011 2016 2017 2018 2026 2035 2037 2040 2041 2043 2044 2045 2048 2050 2053 2054 2055 2056 2057
2058 2064 2065 2066 2068 2069 2071 2072 2074 2075 2077 2083 2084 2085 2086 2087 2088 2089 2090 2091
2092 2093 2095 2096 2097 2099 2100 2101 2102 2103 2104 2105 2106 2107 2109 2110 2111 2112 2113 2114
2115 2116 2117 2118 2119 2120 2121 2122 2129 2130 2131 2133 2134 2136 2138 2141 2147 2148 2149 2154
2155 2162 2164 2165 2166 2167 2168 2169 2170 2171 2172 2174 2175 2176 2178 2179 2180 2181 2182 2183
2184 2185 2186 2187 2188 2189 2190 2191 2193 2194 2195 2197 2198 2199 2200 2201 2202 2204 2205 2206
2207 2208 2209 2210 2211 2212 2213 2214 2215 2216 2217 2219 2220 2221 2228 2229 2230 2231 2232 2233
2234 2235 2236 2238 2239 2240 2241 2243 2244 2245 2246 2247 2249 2250 2251 2252 2253 2254 2255 2256
2257 2258 2259 2260 2261 2262 2263 2264 2265 2266 2267 2268 2269 2270 2271 2272 2273 2274 2276 2277
2278 2279 2280 2281 2282 2283 2284 2285 2287 2289 2290 2292 2293 2297 2299 2303 2305 2307 2308 2310
2313 2314 2316 2317 2318 2319 2323 2324 2325 2326 2328 2331 2335 2337 2349 2351 2354 2355 2356 2357
2358 2359 2360 2361 2363 2367 2368 2369 2372 2377 2378 2380 2381 2384 2385 2386 2387 2391 2392 2393
2394 2395 2396 2400 2401 2402 2403 2404 2405 2406 2411 2412 2414 2415 2416 2417 2418 2419 2420 2421
2422 2423 2425 2427 2428 2429 2430 2433 2434 2435 2438 2444 2445 2446 2447 2449 2450 2451 2452 2453
2454 2455 2456 2457 2458 2461 2462 2464 2465 2466 2467 2468 2469 2470 2471 2472 2473 2475 2476 2477
2478 2479 2480 2481 2482 2483 2486 2487 2488 2490 2491 2492 2493 2496 2497 2498 2499 2500 2501 2502
2503 2504 2505 2506 2507 2508 2509 2510 2511 2512 2513 2514 2515 2516 2518 2519 2520 2521 2523 2524
2525 2527 2528 2529 2530 2531 2532 2533 2540 2541 2542 2545 2546 2547 2548 2550 2551 2552 2553 2556
2558 2559 2560 2562 2563 2566 2571 2572 2573 2575 2577 2581 2584 2587 2588 2589 2590 2591 2592 2593
2594 2595 2596 2610 2612 2613 2614 2616 2620 2622 2624 2634 2635 2636 2637 2644 2645 2646 2647 2649
2651 2654 2655 2656 2657 2672 2674 2676 2677 2678 2679 2680 2681 2683 2684 2685 2686 2688 2690 2696
2700 2701 2702 2703 2705 2706 2708 2712 2714 2715 2717 2723 2724 2726 2729 2730 2731 2732 2733 2734
2737 2738 2739 2741 2742 2747 2748 2749 2750 2751 2752 2757 2762 2763 2764 2765 2766 2767 2770 2773
2774 2775 2776 2777 2778 2779 2781 2782 2783 2784 2785 2788 2789 2790 2791 2792 2793 2794 2795 2796
2797 2798 2799 2802 2804 2811 2813 2814 2816 2817 2819 2820 2821 2822 2823 2824 2825 2826 2828 2829
2830 2831 2832 2833 2837 2838 2839 2840 2841 2842 2843 2844 2845 2846 2847 2851 2854 2855 2856 2857
2860 2861 2862 2863 2870 2873 2875 2876 2877 2878 2879 2881 2884 2885 2886 2887 2888 2889 2890 2891
2892 2893 2894 2909 2910 2911 2912 2919 2924 2928 2940 2945 2946 2947 2948 2954 2955 2956 2966 2969
2970 2971 2973 2974 2975 2976 2978 2979 2980 2982 2983 2984 2985 2986 2987 2989 2992 2994 2995 2997
2999 3000 3001 3005 3006 3007 3008 3009 3010 3011 3012 3013 3014 3016 3017 3019 3020 3022 3023 3025
3027 3029 3031 3032 3035 3036 3037 3038 3039 3040 3041 3043 3045 3046 3047 3048 3050 3052 3057 3058
3061 3062 3063 3066 3067 3068 3071 3072 3073 3074 3075 3076 3077 3078 3083 3084 3090 3091 3093 3094
3095 3099 3100 3104 3106 3107 3112 3113 3114 3119 3121 3125 3129 3130 3131 3133 3135 3136 3140 3141
3142 3143 3147 3148 3150 3153 3154 3158 3159 3160 3162 3163 3169 3170 3172 3188 3189 3190 3191 3192
3193 3194 3195 3196 3197 3198 3199 3200 3207 3208 3209 3212 3214 3215 3241 3247 3249 3250 3252 3253
3254 3257 3260 3263 3264 3265 3280 3282 3284 3285 3297 3298 3315 3316 3336 3337 3340 3341 3343 3344
3345 3347 3348 3350 3351 3352 3353 3354 3355 3356 3357 3358 3361 3364 3365 3366 3367 3370 3371 3379
3386 3404 3412 3420 3422 3425 3432 3433 3434 3435 3436 3437 3438 3439 3451 3455 3456 3457 3458 3459
3461 3462 3463 3464 3465 3466 3467 3491 3495 3500 3501 3503 3504 3505 3507 3508 3509 3511 3512 3517
3529 3534 3544 3547 3562 3564 3566 3567 3568 3569 3570 3571 3572 3573 3574 3575 3576 3584 3586 3587
3594 3597 3598 3605 3607 3609 3610 3617 3620 3622 3623 3625 3626 3628 3629 3631 3637 3646 3665 3666
3672 3677 3736 3738 3741 3766 3767 3768 3769 3772 3773 3776 3777 3778 3785 3787 3789 3791 3792 3798
3801 3802 3803 3806 3807 3808 3810 3811 3812 3886 3894 3897 3898 3900 3901 3902 3904 3912 3913 3914
3915 3916 3917 3918 3922 3923 3925 3928 3929 3930 3931 3932 3933 3937 3938 3939 3940 3943 3946 3947
3960 3961 3962 3963 3971 3972 3973 3974 3975 3977 3978 3979 3980 3982 3984 3997

[ Conformation_3 ]
2027 2028 2030 2031 2046 2047 2049 2051 2052 2123 2124 2125 2126 2127 2128 2132 2135 2565 2599 2600
2601 2602 2603 2604 2605 2608 2609 2611 2621 2623 2630 2631 2632 2787 2871 3109 3110 3111 3127 3174
3175 3290 3294 3299 3302 3303 3305 3306 3307 3308 3447 3619 3635 3649 3650 3651 3653 3654 3655 3657
3660 3661 3669 3684 3685 3705 3706 3707 3712 3714 3715 3719 3759 3764 3765 3782 3784 3786 3788 3790
3796 3797 3809 3813 3815 3817 3823 3824 3826 3827 3829 3830 3831 3832 3834 3835 3842 3843 3848 3861
3883 3884 3885 3893 3927 3936 3942 3944 3949 3952 3953 3954 3957 3976 3985 3990

[ Conformation_4 ]
2003 2004 2006 2007 2008 2010 2012 2013 2014 2020 2021 2025 2029 2032 2033 2034 2036 2039 2042 2059
2061 2062 2063 2067 2070 2073 2076 2078 2079 2080 2081 2082 2094 2098 2108 2137 2139 2140 2143 2144
2145 2146 2150 2151 2152 2153 2156 2157 2158 2159 2160 2161 2163 2173 2177 2203 2218 2222 2223 2224
2225 2226 2227 2237 2242 2248 2275 2286 2288 2291 2294 2295 2296 2298 2306 2311 2327 2364 2365 2371
2407 2409 2410 2424 2426 2431 2432 2437 2442 2443 2448 2459 2460 2463 2474 2484 2485 2489 2494 2495
2517 2522 2526 2536 2537 2538 2539 2543 2544 2549 2554 2557 2561 2564 2567 2568 2569 2570 2574 2576
2578 2579 2580 2582 2583 2585 2586 2597 2598 2606 2615 2617 2618 2619 2626 2628 2629 2659 2662 2664
2687 2689 2691 2693 2694 2695 2697 2698 2699 2704 2707 2709 2710 2711 2713 2716 2718 2719 2720 2721
2722 2725 2727 2728 2735 2736 2740 2743 2744 2745 2746 2753 2754 2755 2756 2760 2761 2768 2769 2771
2772 2780 2786 2800 2801 2812 2815 2818 2827 2834 2836 2848 2849 2858 2859 2864 2865 2866 2867 2868
2869 2872 2874 2901 2902 2905 2906 2907 2908 2917 2920 2921 2922 2925 2926 2927 2929 2930 2937 2938
2939 2941 2942 2951 2952 2959 2961 2962 2963 2964 2968 2972 2981 2988 3002 3026 3028 3030 3042 3044
3055 3056 3059 3060 3096 3098 3105 3108 3117 3118 3134 3137 3139 3144 3146 3149 3151 3152 3155 3156
3161 3164 3165 3166 3167 3171 3177 3178 3179 3182 3201 3202 3203 3204 3205 3206 3234 3235 3237 3268
3270 3272 3273 3274 3281 3289 3292 3300 3301 3335 3338 3339 3349 3372 3373 3376 3377 3378 3385 3388
3389 3400 3401 3403 3410 3479 3487 3492 3493 3497 3498 3499 3502 3506 3510 3514 3515 3518 3520 3539
3540 3541 3546 3550 3556 3557 3558 3563 3577 3578 3579 3585 3591 3593 3595 3616 3618 3632 3633 3634
3641 3644 3652 3662 3663 3667 3668 3675 3676 3681 3703 3704 3718 3722 3724 3725 3726 3729 3732 3735
3818 3857 3858 3876 3877 3891 3895 3899 3903 3905 3906 3907 3908 3909 3910 3911 3934 3935 3941 3945
3948 3958 3959 3969

