Protein in water
 2363
    1RU5    O5'    1   5.396   6.045   6.569  0.1238  0.1255 -0.3187
    1RU5    H5T    2   5.474   6.013   6.616  0.1420  1.2775  0.4815
    1RU5    C5'    3   5.427   6.174   6.529 -0.1107  0.0598  0.3968
    1RU5   H5'1    4   5.467   6.243   6.604 -1.2739  2.5467 -1.1158
    1RU5   H5'2    5   5.334   6.221   6.496 -0.7774  0.1087  2.2521
    1RU5    C4'    6   5.523   6.174   6.403 -0.2398 -0.4310  1.2662
    1RU5    H4'    7   5.558   6.276   6.384 -0.6851 -0.2711  1.2888
    1RU5    O4'    8   5.643   6.096   6.435  0.0690 -0.9477  0.0803
    1RU5    C1'    9   5.692   6.024   6.323  0.4965 -0.3490  0.6121
    1RU5    H1'   10   5.785   6.074   6.296 -0.2342  1.2570  0.9009
    1RU5     N1   11   5.725   5.881   6.353  0.1864  0.2509  0.4553
    1RU5     C6   12   5.641   5.801   6.426  0.1341  0.3109 -0.1498
    1RU5     H6   13   5.549   5.840   6.468 -0.4861  0.1667 -1.3278
    1RU5     C5   14   5.668   5.668   6.451 -0.1812 -0.0961  0.1214
    1RU5     H5   15   5.601   5.597   6.496  1.1061 -2.5094 -1.5327
    1RU5     C4   16   5.794   5.614   6.410 -0.2396 -0.1541 -0.2134
    1RU5     O4   17   5.822   5.495   6.430 -0.5826 -0.4058  0.0851
    1RU5     N3   18   5.874   5.701   6.333  0.0294  0.1685 -0.2950
    1RU5     H3   19   5.957   5.661   6.293 -0.1709 -0.4549 -0.1010
    1RU5     C2   20   5.842   5.826   6.297 -0.2430 -0.9635  0.2128
    1RU5     O2   21   5.905   5.884   6.208 -0.2423 -0.3034 -0.4443
    1RU5    C3'   22   5.465   6.119   6.273 -0.1683 -0.6488 -0.2691
    1RU5    H3'   23   5.395   6.040   6.302 -1.7552  0.7605 -0.1128
    1RU5    C2'   24   5.592   6.051   6.208  0.4442 -0.9520 -0.1827
    1RU5   H2'1   25   5.563   5.959   6.157 -0.8677  1.0294 -3.2975
    1RU5    O2'   26   5.661   6.136   6.121  0.0881 -0.6074  0.0233
    1RU5   HO'2   27   5.596   6.194   6.081  0.9716  0.8098  0.5548
    1RU5    O3'   28   5.400   6.209   6.186  0.1590 -0.1850  0.1224
    2RC       P   29   5.297   6.152   6.076  0.1493 -0.1097  0.0803
    2RC     O1P   30   5.339   6.022   6.035  0.1629  0.1729 -0.8138
    2RC     O2P   31   5.287   6.253   5.970 -0.4589 -0.5938  0.4765
    2RC     O5'   32   5.155   6.143   6.157  0.3971 -0.1261  0.4927
    2RC     C5'   33   5.117   6.044   6.249 -0.7113 -0.1947  0.8129
    2RC    H5'1   34   5.199   6.028   6.319 -0.4290  0.6796  0.6973
    2RC    H5'2   35   5.104   5.947   6.201  0.3396  1.0780 -2.3422
    2RC     C4'   36   4.993   6.069   6.324 -0.7054 -0.7236 -0.0954
    2RC     H4'   37   4.971   5.991   6.397 -0.4584 -0.8118 -0.1179
    2RC     O4'   38   5.014   6.193   6.396  0.4385  0.5920 -0.2465
    2RC     C1'   39   4.905   6.278   6.392  0.2547 -0.3337  0.1179
    2RC     H1'   40   4.870   6.313   6.489 -0.9628  0.3259 -0.5350
    2RC      N1   41   4.928   6.406   6.317 -0.8249 -0.2022 -0.5317
    2RC      C6   42   5.047   6.433   6.246  0.2302 -0.1808  0.4961
    2RC      H6   43   5.120   6.355   6.233  2.5026  1.9570 -0.5101
    2RC      C5   44   5.078   6.555   6.187  0.0793  0.2953 -0.4526
    2RC      H5   45   5.170   6.562   6.131  0.8361 -1.5108  0.4924
    2RC      C4   46   4.980   6.653   6.204  0.1056 -0.4658  0.7367
    2RC      N4   47   4.999   6.769   6.154 -0.2066  0.1551  0.3837
    2RC     H41   48   5.089   6.796   6.116 -1.3873 -0.5111 -3.2913
    2RC     H42   49   4.932   6.845   6.163  1.1988  1.5251 -0.1397
    2RC      N3   50   4.863   6.637   6.274  0.5656  0.0472  0.1413
    2RC      C2   51   4.840   6.514   6.332  1.1081 -0.1921 -0.7121
    2RC      O2   52   4.738   6.491   6.403 -0.3244 -0.4406 -0.1730
    2RC     C3'   53   4.862   6.094   6.247  0.2062 -0.1085 -0.4037
    2RC     H3'   54   4.879   6.134   6.147 -0.5480  1.1699 -0.0508
    2RC     C2'   55   4.784   6.199   6.336 -0.1601  0.3695  0.4951
    2RC    H2'1   56   4.717   6.266   6.282  0.1372  0.8537  0.7082
    2RC     O2'   57   4.729   6.145   6.453  1.3868  0.4283 -0.1624
    2RC    HO'2   58   4.670   6.071   6.437  1.4195  0.0211  1.4478
    2RC     O3'   59   4.784   5.975   6.246  0.1565  0.0347  0.1639
    3RC       P   60   4.683   5.955   6.130  0.0561  0.0695 -0.3832
    3RC     O1P   61   4.614   6.078   6.094  0.2134 -0.2327  0.3475
    3RC     O2P   62   4.592   5.838   6.161  0.5101 -0.0614  0.2907
    3RC     O5'   63   4.766   5.912   6.007  0.3030  0.4393 -0.3787
    3RC     C5'   64   4.789   5.993   5.889 -0.4762 -0.1521 -0.0570
    3RC    H5'1   65   4.822   6.093   5.917  0.7382  0.2660 -2.7029
    3RC    H5'2   66   4.694   5.992   5.835  1.2093 -2.8748 -3.3593
    3RC     C4'   67   4.901   5.939   5.798 -1.1506  0.2719  0.5329
    3RC     H4'   68   4.921   6.007   5.715 -1.0335 -0.4802 -0.0604
    3RC     O4'   69   5.023   5.929   5.878 -0.2318 -0.6785  0.1850
    3RC     C1'   70   5.095   5.814   5.837  0.2878  0.6584 -0.3136
    3RC     H1'   71   5.195   5.851   5.815  0.4594 -0.3885 -1.3773
    3RC      N1   72   5.110   5.694   5.935  0.5820 -0.3417  0.2183
    3RC      C6   73   5.023   5.674   6.043 -0.4282 -0.3902  0.3793
    3RC      H6   74   4.960   5.757   6.068 -0.2059 -0.3440  0.7917
    3RC      C5   75   5.028   5.562   6.120  0.3868 -0.2199 -0.4549
    3RC      H5   76   4.961   5.537   6.201 -0.7414 -1.1471 -1.6401
    3RC      C4   77   5.131   5.474   6.090 -0.4287  0.8474  1.2203
    3RC      N4   78   5.156   5.372   6.169 -0.1191 -0.2704  0.3351
    3RC     H41   79   5.099   5.368   6.252  0.4506  2.3106  0.9256
    3RC     H42   80   5.236   5.311   6.156 -0.1333  0.1430 -2.1854
    3RC      N3   81   5.221   5.490   5.992  0.8481 -0.1680  0.6984
    3RC      C2   82   5.205   5.597   5.913  0.2208  0.2071  0.1934
    3RC      O2   83   5.280   5.602   5.814  0.3964 -0.0205  0.1708
    3RC     C3'   84   4.878   5.800   5.742  0.1479 -0.5234 -0.7573
    3RC     H3'   85   4.835   5.734   5.817 -0.0332  0.8933  0.4241
    3RC     C2'   86   5.019   5.755   5.713  0.4528 -0.1083  0.2274
    3RC    H2'1   87   5.017   5.646   5.706  0.3262 -0.0231 -1.7925
    3RC     O2'   88   5.069   5.807   5.591  0.0199 -0.0918  0.1572
    3RC    HO'2   89   5.118   5.737   5.548 -3.1649 -3.0220  0.8437
    3RC     O3'   90   4.794   5.810   5.626  0.4596  0.3158  0.1194
    4RC       P   91   4.701   5.688   5.590 -0.2143 -0.4640  0.1521
    4RC     O1P   92   4.625   5.729   5.469 -0.1653 -0.2291  0.0467
    4RC     O2P   93   4.633   5.644   5.715 -0.2035  0.3421  0.3072
    4RC     O5'   94   4.809   5.575   5.545  0.4554 -0.1628 -0.1144
    4RC     C5'   95   4.880   5.600   5.426  0.7845 -0.1409 -0.3517
    4RC    H5'1   96   4.903   5.706   5.426  0.9981 -0.1764 -1.5021
    4RC    H5'2   97   4.813   5.587   5.341 -0.0838  0.3380  0.2460
    4RC     C4'   98   4.999   5.510   5.412  1.2765 -0.1067  0.2947
    4RC     H4'   99   5.061   5.547   5.330 -0.6676  0.6527 -0.8987
    4RC     O4'  100   5.081   5.505   5.526 -0.2140  0.1471  0.6757
    4RC     C1'  101   5.155   5.379   5.520  1.0150 -0.3112 -0.8766
    4RC     H1'  102   5.262   5.401   5.509  1.2784 -0.1748  1.4978
    4RC      N1  103   5.131   5.297   5.647  0.1296  0.3281  1.1138
    4RC      C6  104   5.033   5.328   5.744 -0.2232 -0.2559  0.2238
    4RC      H6  105   4.954   5.399   5.724 -0.5172 -0.6123  0.0965
    4RC      C5  106   5.031   5.265   5.862 -0.2553  0.1969  0.4596
    4RC      H5  107   4.953   5.294   5.931 -0.7129 -0.5166  0.2503
    4RC      C4  108   5.129   5.167   5.887 -0.5199 -0.0708  0.1072
    4RC      N4  109   5.133   5.093   5.995 -0.6351  0.2742 -0.3587
    4RC     H41  110   5.076   5.100   6.078  0.6223 -1.2483  0.7076
    4RC     H42  111   5.203   5.019   5.995  0.4874  1.3049 -0.8328
    4RC      N3  112   5.225   5.134   5.801  0.7514  0.5691 -0.9638
    4RC      C2  113   5.225   5.194   5.681 -0.6415 -0.3743 -0.4498
    4RC      O2  114   5.305   5.161   5.597  0.0168  0.9104 -0.6344
    4RC     C3'  115   4.957   5.366   5.383 -0.9251  0.9988  0.0642
    4RC     H3'  116   4.890   5.322   5.457  0.0636 -1.0885 -0.2037
    4RC     C2'  117   5.092   5.299   5.407  0.1250 -0.6479  1.0670
    4RC    H2'1  118   5.084   5.193   5.431 -1.2612 -0.2530  2.4888
    4RC     O2'  119   5.170   5.306   5.289 -0.4836  0.2333 -0.2888
    4RC    HO'2  120   5.171   5.221   5.244 -0.0670 -1.1547  2.1792
    4RC     O3'  121   4.915   5.345   5.246  0.3079 -0.4875 -0.4013
    5RA       P  122   4.816   5.227   5.206 -0.1990 -0.3157  0.0685
    5RA     O1P  123   4.791   5.240   5.059 -0.8402  0.0217  0.1915
    5RA     O2P  124   4.704   5.217   5.305 -0.3129 -0.3586  0.1303
    5RA     O5'  125   4.907   5.094   5.228  0.4503 -0.1132 -0.3289
    5RA     C5'  126   5.004   5.059   5.138  0.4153  0.5368  0.2384
    5RA    H5'1  127   5.057   5.144   5.097 -1.4372  1.1458 -0.9912
    5RA    H5'2  128   4.955   5.022   5.048 -0.1722 -1.0222  1.1578
    5RA     C4'  129   5.101   4.954   5.194 -0.4088 -0.0624 -0.7411
    5RA     H4'  130   5.177   4.936   5.118 -0.6631  0.6350 -1.1702
    5RA     O4'  131   5.160   4.982   5.311  0.2429  0.6340 -0.1853
    5RA     C1'  132   5.187   4.862   5.385 -0.5734 -0.5405  0.3680
    5RA     H1'  133   5.294   4.842   5.391 -0.6649 -1.0650  0.2531
    5RA      N9  134   5.118   4.867   5.515 -0.0769 -0.7949  0.2428
    5RA      C8  135   5.017   4.956   5.548 -0.1440 -0.4164 -0.7959
    5RA      H8  136   4.981   5.032   5.480 -0.0793  1.3530  1.0271
    5RA      N7  137   4.982   4.948   5.677  0.0407  0.2750 -0.3478
    5RA      C5  138   5.061   4.844   5.728  0.6745 -0.4233  0.3069
    5RA      C6  139   5.077   4.771   5.852 -0.1936  0.1488 -0.5935
    5RA      N6  140   5.014   4.786   5.967 -0.6970 -0.5021  0.4228
    5RA     H61  141   4.967   4.875   5.977  1.3200  0.7621 -0.5717
    5RA     H62  142   5.048   4.735   6.047 -1.1709  1.2608  1.7966
    5RA      N1  143   5.175   4.675   5.861 -0.3225  0.1661 -0.4181
    5RA      C2  144   5.245   4.648   5.757  0.3363 -0.0136 -0.0476
    5RA      H2  145   5.308   4.564   5.782  0.1711  0.2088  1.1400
    5RA      N3  146   5.235   4.696   5.636  0.4628 -0.2816  0.0651
    5RA      C4  147   5.145   4.797   5.628  0.0241  0.1094 -0.2554
    5RA     C3'  148   5.031   4.822   5.212  0.1180 -0.0569 -0.1429
    5RA     H3'  149   4.935   4.837   5.262  1.4539 -0.4981  2.7744
    5RA     C2'  150   5.123   4.748   5.312  0.2629  0.2531 -0.0273
    5RA    H2'1  151   5.070   4.679   5.378 -0.0796 -0.4356 -0.9987
    5RA     O2'  152   5.214   4.663   5.250 -0.8159 -0.0254 -0.2102
    5RA    HO'2  153   5.177   4.577   5.231 -0.7481  0.3052 -2.0130
    5RA     O3'  154   5.026   4.746   5.097 -0.3179 -0.3445  0.3673
    6RG       P  155   4.887   4.675   5.054  0.0004 -0.4530 -0.1985
    6RG     O1P  156   4.808   4.774   4.982 -1.0439 -0.3188 -0.0049
    6RG     O2P  157   4.833   4.585   5.156  0.0842  0.3412  0.2513
    6RG     O5'  158   4.944   4.583   4.934  0.4828 -0.0183  0.0327
    6RG     C5'  159   5.062   4.501   4.943  0.2569  0.2241  0.1947
    6RG    H5'1  160   5.051   4.429   5.024  1.6795  0.5225  0.6800
    6RG    H5'2  161   5.153   4.558   4.964  1.8169 -1.9692 -0.2632
    6RG     C4'  162   5.080   4.422   4.814  1.0042  0.6826 -0.3511
    6RG     H4'  163   4.981   4.405   4.771  0.4217  0.4995  0.9993
    6RG     O4'  164   5.160   4.487   4.715  0.2363  0.1190 -0.4819
    6RG     C1'  165   5.231   4.390   4.636  0.4712 -0.0181 -0.6510
    6RG     H1'  166   5.191   4.395   4.535  0.6713  1.3343 -0.6810
    6RG      N9  167   5.369   4.431   4.636 -0.1147 -0.1104 -0.4020
    6RG      C8  168   5.441   4.449   4.524  0.0813  0.2961  0.0766
    6RG      H8  169   5.389   4.455   4.429 -3.5565 -2.2958  1.6986
    6RG      N7  170   5.570   4.467   4.550  0.0065 -0.0021  0.0798
    6RG      C5  171   5.582   4.477   4.689 -0.3924  0.0573  0.7574
    6RG      C6  172   5.697   4.502   4.769  1.0871 -0.6071 -0.3475
    6RG      O6  173   5.814   4.529   4.729  0.1107  0.3596 -0.0579
    6RG      N1  174   5.657   4.494   4.904  0.2432  0.1099  0.0427
    6RG      H1  175   5.727   4.507   4.974  0.0206 -1.7770  0.6529
    6RG      C2  176   5.538   4.441   4.947  0.3393 -0.1482 -0.5168
    6RG      N2  177   5.532   4.418   5.079 -0.1896  0.3168  0.4793
    6RG     H21  178   5.618   4.403   5.130 -1.3105 -0.1475  2.3026
    6RG     H22  179   5.441   4.381   5.102 -0.4155 -0.7569 -1.7814
    6RG      N3  180   5.432   4.412   4.874 -0.8126 -0.3223 -0.3535
    6RG      C4  181   5.456   4.439   4.740 -0.5118  0.2764 -0.3530
    6RG     C3'  182   5.147   4.281   4.834 -0.1128 -0.0524 -0.2460
    6RG     H3'  183   5.237   4.279   4.896  0.5822  0.8631 -1.2011
    6RG     C2'  184   5.197   4.250   4.694  0.1521 -0.5800  0.3540
    6RG    H2'1  185   5.288   4.189   4.692  2.1645  2.1876  0.6955
    6RG     O2'  186   5.098   4.207   4.603  0.4348 -0.3345 -0.0716
    6RG    HO'2  187   5.049   4.140   4.650 -0.4367  1.1217  1.1930
    6RG     O3'  188   5.060   4.191   4.899 -0.2194  0.2601 -0.4899
    7RU       P  189   5.064   4.032   4.886  0.1578 -0.1754 -0.3955
    7RU     O1P  190   5.198   3.993   4.940 -0.1428 -0.0952  0.3235
    7RU     O2P  191   5.026   3.994   4.748  0.0374  0.3318  0.3018
    7RU     O5'  192   4.955   3.993   4.993  0.4533  0.2004  0.0090
    7RU     C5'  193   4.948   4.044   5.124  0.0610 -0.8923  0.3148
    7RU    H5'1  194   5.006   4.135   5.142  0.1601 -0.7808 -0.5348
    7RU    H5'2  195   4.970   3.964   5.195 -0.5041 -1.8199 -0.5334
    7RU     C4'  196   4.817   4.126   5.156 -0.0121  0.9311  0.6933
    7RU     H4'  197   4.806   4.141   5.264 -0.7789 -0.0940  0.7699
    7RU     O4'  198   4.823   4.254   5.098  0.0425 -0.1904 -0.0246
    7RU     C1'  199   4.694   4.297   5.058 -0.4451  0.6976 -0.2821
    7RU     H1'  200   4.656   4.379   5.120 -1.1878  0.9443 -1.0516
    7RU      N1  201   4.696   4.329   4.918 -0.1404 -0.6541  0.4018
    7RU      C6  202   4.762   4.261   4.824  0.5333  0.1903  0.0444
    7RU      H6  203   4.825   4.179   4.854  0.6801  0.4871  0.5502
    7RU      C5  204   4.746   4.287   4.693  0.1010  0.0932 -0.5973
    7RU      H5  205   4.802   4.236   4.616 -0.6174 -0.1737 -0.9445
    7RU      C4  206   4.671   4.398   4.648 -0.0506  0.3170 -0.1059
    7RU      O4  207   4.655   4.432   4.528  0.2767 -0.2375  0.2003
    7RU      N3  208   4.608   4.471   4.743  0.3047  0.5448 -0.2194
    7RU      H3  209   4.565   4.556   4.708  0.6248  0.7739 -0.0626
    7RU      C2  210   4.617   4.441   4.875  0.7348  0.2908 -0.4490
    7RU      O2  211   4.557   4.512   4.952  0.0054  0.2630  0.1345
    7RU     C3'  212   4.691   4.060   5.109  0.0565  0.0145 -0.4440
    7RU     H3'  213   4.704   4.002   5.019  1.1739 -1.0005  0.3502
    7RU     C2'  214   4.593   4.178   5.085 -0.1305  0.3544  0.3234
    7RU    H2'1  215   4.539   4.149   4.995 -1.4239  0.7693  0.9380
    7RU     O2'  216   4.501   4.195   5.198  0.1325  0.8994 -0.0891
    7RU    HO'2  217   4.459   4.109   5.207 -0.1110  1.0459  0.2181
    7RU     O3'  218   4.643   3.985   5.218 -0.0512  0.0739 -0.1238
    8RC       P  219   4.553   3.859   5.194  0.2620 -0.0258  0.0970
    8RC     O1P  220   4.587   3.781   5.069  0.4894  0.1222 -0.7181
    8RC     O2P  221   4.413   3.912   5.207 -0.7198  0.7832 -0.1547
    8RC     O5'  222   4.577   3.763   5.316 -0.0331  0.7683  0.0325
    8RC     C5'  223   4.689   3.687   5.325 -0.7100 -0.0958  0.4169
    8RC    H5'1  224   4.775   3.718   5.266 -1.0417  1.1797  0.5751
    8RC    H5'2  225   4.680   3.589   5.278  0.8594 -0.3068  0.4920
    8RC     C4'  226   4.724   3.678   5.475 -0.3914 -0.2510  0.1748
    8RC     H4'  227   4.805   3.608   5.492  0.5399  0.6346 -0.5131
    8RC     O4'  228   4.772   3.805   5.516 -0.3265 -0.0008  0.0355
    8RC     C1'  229   4.742   3.813   5.658 -0.3665 -0.2057  0.1029
    8RC     H1'  230   4.840   3.805   5.703 -0.1918  0.8808 -0.0686
    8RC      N1  231   4.680   3.940   5.690 -0.5157  0.3448 -0.1139
    8RC      C6  232   4.608   4.018   5.602 -0.3877  0.0845 -0.1237
    8RC      H6  233   4.589   3.984   5.502  0.6306 -2.5693  0.4976
    8RC      C5  234   4.552   4.130   5.654 -0.1713 -0.1093  0.4381
    8RC      H5  235   4.492   4.196   5.592 -2.1670 -1.3239  0.9975
    8RC      C4  236   4.557   4.156   5.794 -0.2984  0.0575  0.9269
    8RC      N4  237   4.491   4.253   5.841  0.1066 -0.3125  0.2306
    8RC     H41  238   4.448   4.324   5.784  0.8199  0.5399  0.7311
    8RC     H42  239   4.493   4.265   5.941 -1.8018 -0.4508  0.3077
    8RC      N3  240   4.612   4.073   5.883  0.5811  0.7232 -0.2895
    8RC      C2  241   4.679   3.967   5.830  0.5424  0.1751  0.1841
    8RC      O2  242   4.720   3.883   5.916  0.2685 -0.3953  0.2062
    8RC     C3'  243   4.606   3.640   5.562 -0.0801  0.1592 -0.6771
    8RC     H3'  244   4.519   3.698   5.531  1.4356  1.7469 -2.1730
    8RC     C2'  245   4.659   3.692   5.696 -0.7264 -0.6612  0.4185
    8RC    H2'1  246   4.578   3.730   5.759 -0.1921  2.1650 -0.4310
    8RC     O2'  247   4.749   3.609   5.759  0.0641  0.8832 -0.1047
    8RC    HO'2  248   4.704   3.530   5.789  1.2531 -0.4416 -1.6438
    8RC     O3'  249   4.585   3.502   5.564  0.6734 -0.2004 -0.1892
    9RC       P  250   4.509   3.429   5.689 -0.1564 -0.5037  0.4041
    9RC     O1P  251   4.607   3.375   5.786 -0.1609 -0.0209  0.3907
    9RC     O2P  252   4.406   3.340   5.639 -0.4018 -0.3613  0.1611
    9RC     O5'  253   4.428   3.545   5.763 -0.1058 -0.3336 -0.3711
    9RC     C5'  254   4.420   3.541   5.908 -0.1141 -0.6918 -0.0403
    9RC    H5'1  255   4.512   3.551   5.965 -0.7026  2.3378  0.5365
    9RC    H5'2  256   4.385   3.440   5.933 -1.3823  0.5039  3.6205
    9RC     C4'  257   4.323   3.658   5.954 -0.4948  0.6932  0.1972
    9RC     H4'  258   4.312   3.664   6.062  1.0214  0.1683  0.4080
    9RC     O4'  259   4.367   3.787   5.921  0.1869 -0.4135  0.6081
    9RC     C1'  260   4.254   3.876   5.892  0.2412 -0.1177 -0.1714
    9RC     H1'  261   4.274   3.965   5.952  0.8617 -0.3572 -0.0171
    9RC      N1  262   4.257   3.913   5.749 -0.0446  0.0789 -0.0061
    9RC      C6  263   4.304   3.833   5.644 -0.9410  0.4777 -0.2364
    9RC      H6  264   4.338   3.734   5.668 -1.3788  0.4491  0.2996
    9RC      C5  265   4.301   3.878   5.516 -0.2609  0.1299  0.2852
    9RC      H5  266   4.343   3.826   5.432 -1.2882 -1.0122  0.4510
    9RC      C4  267   4.263   4.011   5.497 -0.5378 -0.5735 -0.0513
    9RC      N4  268   4.268   4.065   5.383  0.0249  0.7608  0.5476
    9RC     H41  269   4.321   4.021   5.309  0.6475  3.4752 -0.7401
    9RC     H42  270   4.237   4.161   5.383  0.1107  0.8107 -1.0442
    9RC      N3  271   4.219   4.086   5.591 -0.1177  0.0646 -0.1458
    9RC      C2  272   4.207   4.040   5.717 -0.4706  1.0515  0.0771
    9RC      O2  273   4.160   4.117   5.799 -0.3225 -0.4350 -0.2644
    9RC     C3'  274   4.179   3.656   5.900 -0.2086  0.5684 -0.2240
    9RC     H3'  275   4.174   3.634   5.793  3.2378 -0.0978 -0.3637
    9RC     C2'  276   4.130   3.798   5.929 -0.0483 -0.4263 -0.2536
    9RC    H2'1  277   4.047   3.824   5.864  0.7356  0.2762 -0.9876
    9RC     O2'  278   4.094   3.834   6.062 -0.6652 -0.5904  0.2032
    9RC    HO'2  279   4.016   3.785   6.087 -0.2357 -0.8738  1.0495
    9RC     O3'  280   4.093   3.559   5.967 -0.4175  0.3119 -0.2228
   10RA       P  281   3.958   3.513   5.905 -0.5506  0.4248  0.3188
   10RA     O1P  282   3.900   3.423   6.006 -0.1073 -0.2507 -0.3933
   10RA     O2P  283   3.983   3.467   5.767  0.3565  0.1906  1.0342
   10RA     O5'  284   3.873   3.641   5.907  0.1875 -0.2008 -0.1385
   10RA     C5'  285   3.799   3.679   6.017 -0.5447 -0.0857  0.1182
   10RA    H5'1  286   3.866   3.711   6.096 -1.0266 -2.1811  1.4646
   10RA    H5'2  287   3.731   3.603   6.056 -1.2285 -0.8560 -2.3574
   10RA     C4'  288   3.721   3.809   5.986  0.3593 -0.7472 -0.0543
   10RA     H4'  289   3.685   3.850   6.081  1.6408  0.8466 -0.1997
   10RA     O4'  290   3.810   3.909   5.931  0.2609  0.1181 -0.1293
   10RA     C1'  291   3.746   3.982   5.828  0.2900 -0.1741  0.5716
   10RA     H1'  292   3.743   4.087   5.858  2.1789  0.2025 -0.3486
   10RA      N9  293   3.801   3.971   5.689 -0.4270  0.1422  0.0749
   10RA      C8  294   3.880   3.870   5.636 -0.5611 -0.0673 -0.6572
   10RA      H8  295   3.909   3.783   5.693 -1.1727 -0.1317 -0.4321
   10RA      N7  296   3.948   3.903   5.529 -0.1520 -0.1159  0.2655
   10RA      C5  297   3.899   4.032   5.503  0.3321 -0.8844  0.0299
   10RA      C6  298   3.919   4.131   5.406  0.5784 -0.2444 -0.1363
   10RA      N6  299   4.002   4.121   5.304  1.0554  0.2996  0.1949
   10RA     H61  300   4.042   4.031   5.282  1.4056  0.4228  0.3226
   10RA     H62  301   4.003   4.187   5.228 -1.9235 -1.4036 -1.5577
   10RA      N1  302   3.848   4.242   5.398  0.5625  0.1799  0.3632
   10RA      C2  303   3.763   4.262   5.497  0.3802  0.5027  1.0983
   10RA      H2  304   3.704   4.353   5.493  0.4319  0.5358  1.0878
   10RA      N3  305   3.726   4.185   5.597 -0.6264  0.6823  0.4925
   10RA      C4  306   3.804   4.072   5.597 -0.2786 -0.2498  0.0629
   10RA     C3'  307   3.610   3.789   5.879 -0.4212  0.0145  0.0544
   10RA     H3'  308   3.651   3.726   5.800 -2.1832 -0.4294 -0.5547
   10RA     C2'  309   3.600   3.930   5.828  0.4396 -0.3720 -0.0623
   10RA    H2'1  310   3.553   3.945   5.731  0.1089  1.8480  0.3899
   10RA     O2'  311   3.519   3.998   5.920  0.1992 -0.0689  0.0331
   10RA    HO'2  312   3.455   3.937   5.957  1.9106 -1.1323  1.3921
   10RA     O3'  313   3.491   3.744   5.926  0.2036 -0.1471  0.2121
   11RC       P  314   3.387   3.673   5.828 -0.2047 -0.0912  0.5111
   11RC     O1P  315   3.266   3.623   5.893 -0.1447  0.1789 -0.1645
   11RC     O2P  316   3.448   3.576   5.734 -0.3127 -0.4046 -0.0759
   11RC     O5'  317   3.341   3.793   5.735  0.4596 -0.2004 -0.3329
   11RC     C5'  318   3.251   3.896   5.768  0.0570  0.1243 -1.1033
   11RC    H5'1  319   3.299   3.948   5.850 -1.5807 -0.2801  0.1642
   11RC    H5'2  320   3.153   3.853   5.788 -0.0775  0.7163 -0.4468
   11RC     C4'  321   3.236   3.990   5.652  0.3364 -0.1513 -0.2178
   11RC     H4'  322   3.150   4.052   5.677 -0.5819 -1.3982 -0.2278
   11RC     O4'  323   3.357   4.048   5.630  0.1758 -0.4485  0.0725
   11RC     C1'  324   3.369   4.079   5.491  0.3798  0.4040  0.1139
   11RC     H1'  325   3.378   4.187   5.480 -0.6155  0.4649 -0.2629
   11RC      N1  326   3.485   4.016   5.413 -0.2334  0.9353 -0.1045
   11RC      C6  327   3.536   3.890   5.446 -0.0913 -0.0968  0.0444
   11RC      H6  328   3.488   3.843   5.531 -1.2380 -0.8826 -0.9988
   11RC      C5  329   3.642   3.833   5.383 -0.2345  0.6902  0.2859
   11RC      H5  330   3.678   3.733   5.406 -1.3310  0.6591  2.0657
   11RC      C4  331   3.686   3.909   5.267 -0.8957 -0.2152 -0.5797
   11RC      N4  332   3.787   3.859   5.204 -0.1507  0.0337  0.9651
   11RC     H41  333   3.823   3.767   5.221 -0.1352 -0.0488  0.5069
   11RC     H42  334   3.825   3.917   5.130  0.8458 -0.8399  0.7752
   11RC      N3  335   3.639   4.026   5.230 -0.5427 -0.4542  0.2522
   11RC      C2  336   3.539   4.079   5.304  0.4191 -0.8693  0.4865
   11RC      O2  337   3.502   4.188   5.270 -0.4488  0.0478  0.5387
   11RC     C3'  338   3.206   3.925   5.521  0.6837  0.0544  0.6435
   11RC     H3'  339   3.263   3.833   5.515 -0.9340 -0.9507 -0.2237
   11RC     C2'  340   3.237   4.038   5.426 -0.5603 -0.2400  0.0981
   11RC    H2'1  341   3.251   3.992   5.328  1.2652  0.0186  0.2000
   11RC     O2'  342   3.156   4.153   5.422  0.6759  0.0055 -0.4778
   11RC    HO'2  343   3.134   4.162   5.329 -2.4143  0.7768  0.2286
   11RC     O3'  344   3.067   3.886   5.519 -0.2463  0.1899 -0.2421
   12RC       P  345   3.010   3.773   5.423 -0.5266 -0.5706  0.0960
   12RC     O1P  346   2.869   3.750   5.459 -0.8059 -0.0566 -0.2485
   12RC     O2P  347   3.105   3.664   5.427  0.0270 -0.0907  0.0092
   12RC     O5'  348   3.017   3.828   5.277  0.5613 -0.5577  0.1510
   12RC     C5'  349   2.939   3.944   5.240  0.0694  0.4832 -0.6486
   12RC    H5'1  350   2.933   4.011   5.325  0.7971 -2.6940  2.1474
   12RC    H5'2  351   2.842   3.907   5.208 -0.0792 -0.0140  0.3335
   12RC     C4'  352   2.985   4.023   5.117 -0.4089 -0.2454  0.3313
   12RC     H4'  353   2.917   4.107   5.105 -1.2271 -0.6969  1.5886
   12RC     O4'  354   3.118   4.074   5.131 -0.3312  0.4705 -0.6838
   12RC     C1'  355   3.183   4.076   5.002  0.2175 -0.2528  0.4113
   12RC     H1'  356   3.218   4.176   4.976  0.6269 -0.5113 -0.0488
   12RC      N1  357   3.300   3.985   4.992  0.9216  0.0805  0.1848
   12RC      C6  358   3.318   3.890   5.092 -0.9975 -0.1006  0.5066
   12RC      H6  359   3.239   3.883   5.166 -0.0668  1.8964  1.7626
   12RC      C5  360   3.427   3.812   5.091  0.3584 -0.0054 -0.3779
   12RC      H5  361   3.444   3.743   5.173  0.2672  1.0137  0.5300
   12RC      C4  362   3.513   3.828   4.981 -0.0141  0.3440  0.2142
   12RC      N4  363   3.619   3.759   4.968 -0.2108  0.3054  0.3246
   12RC     H41  364   3.637   3.699   5.048 -0.2890  1.7900  1.4956
   12RC     H42  365   3.681   3.769   4.889  1.5505 -1.4812  1.3842
   12RC      N3  366   3.490   3.909   4.877 -0.7576  0.3578  0.3380
   12RC      C2  367   3.382   3.994   4.883  0.8386  0.0786 -0.0599
   12RC      O2  368   3.358   4.080   4.795 -0.4981  0.3966 -0.3902
   12RC     C3'  369   2.975   3.938   4.992  0.2838 -0.7370 -0.4789
   12RC     H3'  370   3.022   3.842   5.014  2.7803  0.2711 -1.0423
   12RC     C2'  371   3.071   4.026   4.908 -0.0299 -0.0756  0.3045
   12RC    H2'1  372   3.106   3.964   4.825 -2.0316 -1.7464  0.6269
   12RC     O2'  373   3.005   4.135   4.843  0.5324  0.1192  0.6403
   12RC    HO'2  374   2.954   4.101   4.769 -0.9189  1.3636  1.0138
   12RC     O3'  375   2.842   3.929   4.944  0.3272 -0.5611  0.2830
   13RG3      P  376   2.790   3.824   4.837 -0.0399 -0.1209  0.2519
   13RG3    O1P  377   2.858   3.852   4.704  0.0738  0.1530 -0.4892
   13RG3    O2P  378   2.643   3.826   4.845  0.7369  0.0441 -0.1787
   13RG3    O5'  379   2.853   3.688   4.898 -0.2377  0.3530 -0.0197
   13RG3    C5'  380   2.778   3.574   4.926  0.1409  0.1064 -0.3022
   13RG3   H5'1  381   2.737   3.527   4.836  0.6768 -0.5723 -0.1993
   13RG3   H5'2  382   2.694   3.608   4.987  0.4107 -1.0726  0.7618
   13RG3    C4'  383   2.853   3.469   5.006  0.3607 -0.1995  0.3432
   13RG3    H4'  384   2.778   3.391   5.019 -1.3069  1.0645 -1.2200
   13RG3    O4'  385   2.957   3.428   4.919  0.7031  0.5886  0.1891
   13RG3    C1'  386   3.079   3.417   4.997  0.3279 -0.2749 -0.0862
   13RG3    H1'  387   3.068   3.321   5.047  0.9032  1.0829  2.8480
   13RG3     N9  388   3.205   3.442   4.925  0.5250  0.1041 -0.8000
   13RG3     C8  389   3.325   3.370   4.929 -0.0677  0.4095 -0.0901
   13RG3     H8  390   3.331   3.279   4.986 -2.3235  0.3832  0.1839
   13RG3     N7  391   3.424   3.422   4.866 -0.1209 -0.5456 -0.1990
   13RG3     C5  392   3.364   3.540   4.810 -0.4024 -0.6359 -0.7835
   13RG3     C6  393   3.418   3.632   4.709  0.1687 -0.6818 -0.2846
   13RG3     O6  394   3.527   3.634   4.654  0.2740  0.4690  0.2653
   13RG3     N1  395   3.324   3.716   4.656 -0.6821 -0.0755 -0.5461
   13RG3     H1  396   3.346   3.774   4.576 -1.6738  2.3929  0.8894
   13RG3     C2  397   3.200   3.731   4.711  0.4624 -0.8590  0.2512
   13RG3     N2  398   3.119   3.808   4.642 -0.4382  0.5375 -0.5191
   13RG3    H21  399   3.163   3.875   4.580 -1.9471  1.9392 -0.1298
   13RG3    H22  400   3.032   3.822   4.691  0.8109 -2.7115  3.1666
   13RG3     N3  401   3.145   3.650   4.795 -0.4023 -0.2949 -0.2086
   13RG3     C4  402   3.229   3.548   4.839 -0.0453 -0.0993 -0.3099
   13RG3    C3'  403   2.914   3.512   5.140  0.1296  0.6691 -0.3229
   13RG3    H3'  404   2.879   3.611   5.171 -1.7850 -0.2279  0.5528
   13RG3    C2'  405   3.060   3.515   5.107 -0.1209  0.2038 -0.0628
   13RG3   H2'1  406   3.075   3.615   5.067 -1.5290  1.1303  1.5906
   13RG3    O2'  407   3.138   3.495   5.221  0.0726  0.2337 -0.1611
   13RG3   HO'2  408   3.127   3.570   5.280  0.3462  0.5099 -0.4585
   13RG3    O3'  409   2.898   3.407   5.236  0.4549 -0.5421  0.2801
   13RG3    H3T  410   2.982   3.405   5.283  1.4908 -2.1256 -1.4797
   14RC5    O5'  411   4.603   4.223   4.328  0.3514 -0.6902  0.4662
   14RC5    H5T  412   4.605   4.290   4.397 -1.8706 -0.6268  0.5415
   14RC5    C5'  413   4.647   4.099   4.378 -0.2285 -0.2974 -0.0427
   14RC5   H5'1  414   4.731   4.112   4.446 -0.1626  3.4817 -0.6259
   14RC5   H5'2  415   4.653   4.034   4.291  0.3943  1.4997 -1.4060
   14RC5    C4'  416   4.529   4.046   4.465  0.4070  0.7598  0.2896
   14RC5    H4'  417   4.558   3.946   4.499 -1.4877  0.0748  0.0307
   14RC5    O4'  418   4.510   4.127   4.574 -0.1254  0.4662  0.1937
   14RC5    C1'  419   4.376   4.128   4.621  0.2726  0.0352  0.3367
   14RC5    H1'  420   4.373   4.061   4.707 -0.1996  1.1971  1.2599
   14RC5     N1  421   4.341   4.269   4.658  0.9176 -0.0764 -0.2668
   14RC5     C6  422   4.297   4.360   4.564  0.5283  0.4458  0.3768
   14RC5     H6  423   4.282   4.335   4.460  0.5929  2.0363 -0.0481
   14RC5     C5  424   4.272   4.484   4.597  0.2214 -0.1678 -0.3379
   14RC5     H5  425   4.250   4.553   4.517  0.7225 -1.4230 -1.6013
   14RC5     C4  426   4.269   4.521   4.739 -0.7429  1.2584  0.0858
   14RC5     N4  427   4.251   4.640   4.782 -0.1254 -0.4589 -0.0192
   14RC5    H41  428   4.213   4.709   4.719 -2.8921 -1.2460  0.6376
   14RC5    H42  429   4.286   4.660   4.875 -1.3816 -1.2707  0.6643
   14RC5     N3  430   4.301   4.432   4.832  0.5823  0.0629 -0.0030
   14RC5     C2  431   4.332   4.307   4.791 -0.1675  0.5613 -0.5435
   14RC5     O2  432   4.364   4.228   4.883 -0.6786  0.0515 -0.8971
   14RC5    C3'  433   4.394   4.039   4.400 -0.3298 -0.2966  0.4996
   14RC5    H3'  434   4.386   4.118   4.325  1.6169 -0.5651 -0.0625
   14RC5    C2'  435   4.297   4.056   4.505 -0.3773 -0.2295 -0.0776
   14RC5   H2'1  436   4.212   4.110   4.464 -0.1990 -0.7707 -1.2030
   14RC5    O2'  437   4.253   3.931   4.566  0.5291 -0.2683 -0.3226
   14RC5   HO'2  438   4.269   3.868   4.496  0.5938 -1.7483  0.9704
   14RC5    O3'  439   4.366   3.918   4.332 -0.4537  0.1454 -0.1793
   15RG       P  440   4.335   3.922   4.175 -0.0294  0.1686 -0.3673
   15RG     O1P  441   4.307   3.785   4.131 -0.5111  0.4198  0.1599
   15RG     O2P  442   4.450   3.994   4.120 -0.3569 -0.1254  0.1281
   15RG     O5'  443   4.204   4.005   4.155  0.5520  0.0307  0.4864
   15RG     C5'  444   4.176   4.056   4.025  0.0274 -0.0343 -0.2128
   15RG    H5'1  445   4.170   3.977   3.949  2.2264 -1.4858  0.9826
   15RG    H5'2  446   4.246   4.135   3.996  1.8686 -2.2248 -2.2319
   15RG     C4'  447   4.031   4.119   4.034  0.0169 -0.4955 -0.1064
   15RG     H4'  448   3.998   4.156   3.937  3.8217  2.0536 -0.6552
   15RG     O4'  449   3.938   4.017   4.078  0.0266 -0.0568  0.2731
   15RG     C1'  450   3.855   4.068   4.177 -0.6185  0.1291  0.0788
   15RG     H1'  451   3.747   4.059   4.160 -1.3641  0.8900  3.6280
   15RG      N9  452   3.876   4.006   4.312  0.3551  0.1105 -0.5161
   15RG      C8  453   3.973   3.916   4.353 -0.0943  0.3726  0.5059
   15RG      H8  454   4.055   3.881   4.292 -1.5924 -1.9981 -0.2666
   15RG      N7  455   3.959   3.868   4.474 -0.4114 -0.3463  0.3677
   15RG      C5  456   3.833   3.927   4.511 -0.3471  1.8748  0.1952
   15RG      C6  457   3.760   3.907   4.632  0.7708 -0.0837 -0.1105
   15RG      O6  458   3.789   3.847   4.733  0.0174  0.6158 -0.7952
   15RG      N1  459   3.642   3.979   4.635  0.2384  0.2201 -0.0429
   15RG      H1  460   3.591   3.969   4.721  1.9126  0.3752  1.0091
   15RG      C2  461   3.604   4.063   4.539  0.0914  0.4655  0.0462
   15RG      N2  462   3.498   4.136   4.562 -1.1399 -0.1976  0.7820
   15RG     H21  463   3.438   4.104   4.637  0.1633  0.4633  2.1547
   15RG     H22  464   3.477   4.205   4.492  1.6957 -0.6450 -0.6382
   15RG      N3  465   3.671   4.092   4.428  0.4560 -0.1766  0.1689
   15RG      C4  466   3.784   4.011   4.412  0.5118 -0.1073  0.0660
   15RG     C3'  467   4.027   4.234   4.142 -0.2625  0.2388  0.7743
   15RG     H3'  468   4.090   4.211   4.228 -0.8911  0.5721  1.3335
   15RG     C2'  469   3.883   4.216   4.190 -0.7993 -1.2361  0.1515
   15RG    H2'1  470   3.874   4.255   4.292  1.1875  1.4451 -0.5895
   15RG     O2'  471   3.794   4.288   4.108  0.4585 -0.6520 -0.0823
   15RG    HO'2  472   3.842   4.367   4.082 -0.0682 -0.4645 -0.5061
   15RG     O3'  473   4.042   4.370   4.107 -0.3058  0.1730 -0.1295
   16RG       P  474   4.148   4.463   4.176 -0.2768  0.0041 -0.5179
   16RG     O1P  475   4.169   4.582   4.083 -0.1931 -0.0188 -0.6331
   16RG     O2P  476   4.264   4.387   4.223 -0.3550 -0.1001  0.2951
   16RG     O5'  477   4.073   4.519   4.310 -0.6670 -0.0022  0.0409
   16RG     C5'  478   3.952   4.586   4.285  0.0491 -0.0767  0.1992
   16RG    H5'1  479   3.895   4.550   4.200  0.6533  1.3061 -0.8416
   16RG    H5'2  480   3.982   4.688   4.261 -0.3023 -0.0575 -0.1737
   16RG     C4'  481   3.864   4.589   4.415  0.3599  0.1361 -0.3918
   16RG     H4'  482   3.773   4.648   4.404 -1.0230 -1.4652  1.7113
   16RG     O4'  483   3.841   4.454   4.455  0.3722  0.6048  0.0009
   16RG     C1'  484   3.797   4.460   4.589  0.0052 -0.4330  0.0146
   16RG     H1'  485   3.688   4.452   4.590  0.0293 -0.7887 -0.1925
   16RG      N9  486   3.858   4.345   4.665 -0.1971  0.0154  0.5870
   16RG      C8  487   3.956   4.265   4.622 -0.2977 -0.3558  0.5288
   16RG      H8  488   4.011   4.286   4.532  0.6071 -1.3379  0.8272
   16RG      N7  489   3.986   4.162   4.696 -0.0955 -0.3793 -0.0874
   16RG      C5  490   3.890   4.171   4.796 -0.3124  0.0918 -0.4124
   16RG      C6  491   3.862   4.085   4.912 -0.2232 -0.6249 -1.0098
   16RG      O6  492   3.926   3.992   4.962  0.5871 -0.7983 -0.0347
   16RG      N1  493   3.749   4.121   4.983 -0.2557 -0.1477 -0.0065
   16RG      H1  494   3.729   4.071   5.069  0.2226 -0.2396  0.0523
   16RG      C2  495   3.666   4.221   4.938  0.7644 -0.1815 -0.3513
   16RG      N2  496   3.552   4.244   5.004  0.7013  0.1498  0.9244
   16RG     H21  497   3.540   4.197   5.093  0.4604 -0.7309  0.4434
   16RG     H22  498   3.502   4.329   4.983 -0.5542 -0.1527  2.4930
   16RG      N3  499   3.690   4.313   4.845 -0.6072  0.5503 -0.4601
   16RG      C4  500   3.806   4.280   4.776  0.3647  0.2677 -0.1176
   16RG     C3'  501   3.932   4.657   4.536 -0.0206 -0.1419  0.4098
   16RG     H3'  502   4.032   4.620   4.558  1.0955  3.3719  1.9142
   16RG     C2'  503   3.844   4.597   4.651 -0.1502 -0.1059  0.2152
   16RG    H2'1  504   3.906   4.580   4.739  1.0470  0.2395 -0.5287
   16RG     O2'  505   3.729   4.676   4.673 -0.0303  0.1431  0.2923
   16RG    HO'2  506   3.746   4.762   4.635  0.3209 -0.1080 -0.1371
   16RG     O3'  507   3.936   4.798   4.526  0.1134  0.7646  0.1138
   17RU       P  508   3.996   4.900   4.634  0.2595 -0.1996  0.0838
   17RU     O1P  509   3.982   5.038   4.580  0.0365 -0.3884 -0.0948
   17RU     O2P  510   4.134   4.853   4.662  0.1798  0.6465 -0.4129
   17RU     O5'  511   3.912   4.892   4.770  0.2109 -0.2798 -0.9949
   17RU     C5'  512   3.823   4.991   4.805 -0.3757 -0.5315  0.1923
   17RU    H5'1  513   3.748   5.002   4.727  0.6860  0.6644 -0.6924
   17RU    H5'2  514   3.894   5.072   4.821  0.1914 -1.1739  1.0579
   17RU     C4'  515   3.751   4.965   4.936  0.4446  0.4993  0.4125
   17RU     H4'  516   3.676   5.043   4.947 -1.8062 -1.3159 -1.0671
   17RU     O4'  517   3.691   4.827   4.926  0.3653 -0.1542 -0.0218
   17RU     C1'  518   3.688   4.768   5.058 -0.1131  0.8307  0.2142
   17RU     H1'  519   3.588   4.741   5.092  1.0628 -2.2956  1.5833
   17RU      N1  520   3.772   4.644   5.074 -0.6393 -0.0952 -0.1628
   17RU      C6  521   3.881   4.624   4.996  0.2180 -0.1453  0.2439
   17RU      H6  522   3.902   4.700   4.922 -1.0026 -0.1946 -0.1795
   17RU      C5  523   3.951   4.508   5.002 -0.2098 -0.2290  0.2322
   17RU      H5  524   4.039   4.482   4.946 -1.4271 -3.7176 -0.2732
   17RU      C4  525   3.921   4.403   5.094  0.0036 -0.3826 -0.3825
   17RU      O4  526   3.989   4.304   5.098 -0.4126  0.3259  0.2913
   17RU      N3  527   3.818   4.436   5.182  0.0553 -0.1691 -0.6765
   17RU      H3  528   3.803   4.378   5.264 -0.1399  0.8094 -0.0033
   17RU      C2  529   3.741   4.553   5.179  0.2092  0.5496  0.0830
   17RU      O2  530   3.672   4.569   5.275  0.4449 -0.5321  0.0246
   17RU     C3'  531   3.835   4.960   5.063  0.3141 -0.2603 -0.0252
   17RU     H3'  532   3.925   4.902   5.043  0.1194  0.2890 -3.0441
   17RU     C2'  533   3.737   4.876   5.147  0.3125 -0.9960 -0.2177
   17RU    H2'1  534   3.797   4.827   5.223  1.7524 -1.2821 -1.4934
   17RU     O2'  535   3.623   4.938   5.209 -0.0709 -0.1421 -0.4604
   17RU    HO'2  536   3.646   5.024   5.244 -0.8154 -1.1517  2.8720
   17RU     O3'  537   3.867   5.097   5.111  0.2205  0.2040 -0.0356
   18RG       P  538   4.015   5.131   5.162  0.2708 -0.1396  0.1858
   18RG     O1P  539   4.016   5.275   5.187  0.4334 -0.2234  0.5121
   18RG     O2P  540   4.122   5.071   5.080 -0.2222 -0.0541  0.7065
   18RG     O5'  541   4.015   5.071   5.302 -0.6663  0.4396  0.3996
   18RG     C5'  542   3.938   5.133   5.399 -0.0408  0.3555  0.7705
   18RG    H5'1  543   3.847   5.180   5.360 -0.0872  1.2024  1.8620
   18RG    H5'2  544   3.996   5.215   5.441  1.1082 -0.0705  0.0359
   18RG     C4'  545   3.885   5.039   5.505 -0.4463  0.1510 -0.2208
   18RG     H4'  546   3.799   5.070   5.564 -1.6545 -2.7580 -0.2743
   18RG     O4'  547   3.837   4.919   5.447  0.2123  0.0588  0.1757
   18RG     C1'  548   3.889   4.813   5.524  0.1461  0.6974 -0.2823
   18RG     H1'  549   3.810   4.745   5.557 -0.5326  1.1333 -0.9766
   18RG      N9  550   3.988   4.736   5.449  0.5775  0.1276 -0.2407
   18RG      C8  551   4.050   4.748   5.326  0.1710  0.1278 -0.2885
   18RG      H8  552   4.047   4.844   5.278  0.4695  0.6940  0.7969
   18RG      N7  553   4.112   4.639   5.283 -0.3704  0.5259 -0.2849
   18RG      C5  554   4.102   4.550   5.389 -0.2552  0.2668  0.0601
   18RG      C6  555   4.152   4.416   5.406 -0.0673  0.3143  0.1592
   18RG      O6  556   4.221   4.352   5.331  0.3502  0.1087  0.2807
   18RG      N1  557   4.125   4.364   5.532 -0.7249  0.4811  0.0456
   18RG      H1  558   4.153   4.268   5.545 -4.2644 -0.8974 -1.3464
   18RG      C2  559   4.043   4.428   5.616 -0.1600  0.5506 -0.3374
   18RG      N2  560   4.037   4.364   5.731  0.3126 -0.0701  0.7061
   18RG     H21  561   4.086   4.277   5.742  0.3099 -0.3455 -1.1186
   18RG     H22  562   3.983   4.400   5.808 -0.4533 -0.1365  0.2144
   18RG      N3  563   3.990   4.544   5.605  0.1159 -0.1895  0.0793
   18RG      C4  564   4.024   4.608   5.491 -0.3771 -0.1110  0.4133
   18RG     C3'  565   3.994   5.008   5.607  0.0897  0.2960 -0.5558
   18RG     H3'  566   4.089   5.009   5.553  0.8603  2.3155  0.7042
   18RG     C2'  567   3.945   4.870   5.652  0.2228  0.2122  0.3225
   18RG    H2'1  568   4.031   4.813   5.687  0.6969  0.5145 -0.3337
   18RG     O2'  569   3.840   4.879   5.751  0.1736  0.2350  0.2562
   18RG    HO'2  570   3.844   4.954   5.810 -1.5816  0.8295 -0.3309
   18RG     O3'  571   3.992   5.103   5.716 -0.1598  0.6408 -0.5560
   19RA       P  572   4.123   5.128   5.797  0.0401  0.1951 -0.3162
   19RA     O1P  573   4.082   5.194   5.923  0.0882 -0.1524 -0.1585
   19RA     O2P  574   4.219   5.197   5.714 -0.1534 -0.2495  0.4985
   19RA     O5'  575   4.182   4.978   5.826  0.4591  0.3961 -0.5587
   19RA     C5'  576   4.148   4.899   5.944  0.6643  0.3260  0.4935
   19RA    H5'1  577   4.039   4.894   5.954  0.6436 -3.0396 -0.4242
   19RA    H5'2  578   4.184   4.949   6.034 -0.5059  0.1593  1.0722
   19RA     C4'  579   4.205   4.757   5.945 -0.1040 -0.6357  0.4824
   19RA     H4'  580   4.148   4.686   6.005  0.4571 -2.4852 -1.0441
   19RA     O4'  581   4.198   4.695   5.814 -0.6025  0.5578  0.8540
   19RA     C1'  582   4.313   4.621   5.779  0.6111 -0.3652  0.6621
   19RA     H1'  583   4.292   4.515   5.766 -2.7592  0.1645  0.9124
   19RA      N9  584   4.359   4.675   5.649  0.2658 -1.1260 -0.6276
   19RA      C8  585   4.356   4.808   5.612 -0.7952  0.4098  0.2864
   19RA      H8  586   4.307   4.880   5.677 -0.3892  0.5434  0.4480
   19RA      N7  587   4.388   4.828   5.485 -0.8654 -0.4747 -0.6361
   19RA      C5  588   4.439   4.700   5.447 -0.3222  0.5209  0.4661
   19RA      C6  589   4.500   4.639   5.333 -0.7210  0.0247 -0.7633
   19RA      N6  590   4.540   4.704   5.229  0.1732  0.1769  0.2160
   19RA     H61  591   4.532   4.805   5.228  0.3383  0.1937  0.6343
   19RA     H62  592   4.579   4.648   5.155  0.5994 -0.8109  1.1684
   19RA      N1  593   4.510   4.506   5.321  0.2822 -0.9283  1.3000
   19RA      C2  594   4.487   4.431   5.425  0.3371  0.3510  0.6846
   19RA      H2  595   4.491   4.325   5.410  3.7182  0.4945 -0.3161
   19RA      N3  596   4.430   4.466   5.540  0.1719 -0.2435 -0.3537
   19RA      C4  597   4.414   4.603   5.544 -0.3410 -0.4856 -0.0718
   19RA     C3'  598   4.352   4.751   5.993 -0.1217 -0.1925  0.1808
   19RA     H3'  599   4.384   4.852   5.969 -0.5922  0.1205  0.8342
   19RA     C2'  600   4.407   4.648   5.897 -1.0021 -0.1818  0.3245
   19RA    H2'1  601   4.508   4.668   5.859 -1.0139 -2.3608 -1.0632
   19RA     O2'  602   4.417   4.523   5.960  0.3888 -0.3798 -0.4003
   19RA    HO'2  603   4.501   4.527   6.007 -0.1814 -0.0998  0.6173
   19RA     O3'  604   4.365   4.709   6.129 -0.4355 -0.1650  0.0497
   20RG       P  605   4.500   4.755   6.203 -0.1409 -0.0994 -0.1119
   20RG     O1P  606   4.484   4.723   6.346  0.0938 -0.7601 -0.2167
   20RG     O2P  607   4.536   4.894   6.159 -0.3477  0.1888 -0.4700
   20RG     O5'  608   4.613   4.654   6.150  0.3448  0.2111 -0.1631
   20RG     C5'  609   4.615   4.516   6.198 -0.6434 -0.1775  0.1644
   20RG    H5'1  610   4.515   4.475   6.186  0.2275 -2.7403  0.9372
   20RG    H5'2  611   4.642   4.512   6.304  0.3897 -4.6062 -0.0918
   20RG     C4'  612   4.716   4.439   6.110 -0.2297  0.1484 -0.0131
   20RG     H4'  613   4.716   4.333   6.138 -2.6856 -0.4459 -1.9158
   20RG     O4'  614   4.679   4.439   5.974  0.7586  0.0792 -0.6230
   20RG     C1'  615   4.798   4.455   5.894 -0.2754 -0.2713  0.5772
   20RG     H1'  616   4.806   4.369   5.827  0.6991  0.6079 -0.4524
   20RG      N9  617   4.781   4.577   5.814 -0.5675  0.6176  0.2954
   20RG      C8  618   4.743   4.700   5.853 -0.7232 -0.3817  0.3878
   20RG      H8  619   4.720   4.721   5.956 -0.6181 -0.6226  0.4624
   20RG      N7  620   4.716   4.784   5.752 -0.5734 -0.0563 -0.4241
   20RG      C5  621   4.753   4.702   5.640  1.2181 -0.8590  0.3309
   20RG      C6  622   4.767   4.739   5.501 -0.0417 -0.3081 -0.5381
   20RG      O6  623   4.735   4.843   5.442  0.4799  0.2355  0.4457
   20RG      N1  624   4.803   4.635   5.426  0.1179  0.3634  0.1144
   20RG      H1  625   4.775   4.634   5.329  3.9220  0.6724 -1.1468
   20RG      C2  626   4.848   4.511   5.471 -0.1036  0.0375 -0.2040
   20RG      N2  627   4.871   4.417   5.378  0.0468  0.2874  0.1279
   20RG     H21  628   4.845   4.442   5.283 -2.7278 -1.4583  0.3200
   20RG     H22  629   4.892   4.322   5.406 -2.3478 -0.6847 -1.1166
   20RG      N3  630   4.841   4.464   5.595 -0.3025 -0.6147  0.1338
   20RG      C4  631   4.794   4.569   5.677  0.0593 -0.6721  0.6425
   20RG     C3'  632   4.859   4.497   6.117  0.1512  0.0700  0.3437
   20RG     H3'  633   4.858   4.605   6.109 -1.0597  0.0036 -0.6862
   20RG     C2'  634   4.917   4.451   5.985 -0.0421 -0.3457 -0.4779
   20RG    H2'1  635   4.993   4.519   5.948 -0.4305  0.1121 -0.4370
   20RG     O2'  636   4.969   4.320   5.991 -0.3311 -0.1445 -0.3133
   20RG    HO'2  637   5.020   4.320   6.072  0.0859 -1.8227 -0.5283
   20RG     O3'  638   4.918   4.454   6.235 -0.3890 -0.2005 -0.0555
   21RA       P  639   5.059   4.493   6.285  0.0491 -0.1674 -0.4247
   21RA     O1P  640   5.052   4.498   6.429 -0.0823  0.3793 -0.3849
   21RA     O2P  641   5.107   4.605   6.203  0.0788  0.0375 -0.7037
   21RA     O5'  642   5.131   4.358   6.240 -0.3981 -0.0576 -0.8219
   21RA     C5'  643   5.115   4.240   6.319 -0.2221 -0.1865  0.6816
   21RA    H5'1  644   5.013   4.235   6.358  0.1989 -0.7092  1.7423
   21RA    H5'2  645   5.185   4.247   6.402 -0.1681  2.5904  0.4856
   21RA     C4'  646   5.144   4.111   6.244  0.6373  0.1537  0.3230
   21RA     H4'  647   5.113   4.027   6.307 -0.8957 -0.2368 -0.8839
   21RA     O4'  648   5.082   4.091   6.127 -0.0633 -0.4382  0.9622
   21RA     C1'  649   5.133   3.977   6.065 -0.2593 -0.7825  0.0139
   21RA     H1'  650   5.085   3.899   6.123 -0.7362  2.0487  3.8204
   21RA      N9  651   5.096   3.969   5.919 -0.6877  0.9499  0.1185
   21RA      C8  652   4.982   4.025   5.866  0.3759 -0.5845 -1.0671
   21RA      H8  653   4.908   4.077   5.926  2.3426  0.4522  0.5609
   21RA      N7  654   4.973   4.019   5.735 -0.3856  0.0252  0.4952
   21RA      C5  655   5.086   3.941   5.697 -0.1638 -0.3318 -0.3518
   21RA      C6  656   5.140   3.885   5.573  0.1718 -0.2152 -0.4957
   21RA      N6  657   5.083   3.910   5.458 -0.2075 -0.1534  0.2445
   21RA     H61  658   4.990   3.950   5.458  0.8075  2.4030 -0.7241
   21RA     H62  659   5.126   3.883   5.371  1.3390  1.2466  0.5236
   21RA      N1  660   5.252   3.818   5.569 -0.3794  0.1884  0.5596
   21RA      C2  661   5.304   3.789   5.685  0.0300  0.1955 -0.7421
   21RA      H2  662   5.390   3.723   5.679  0.2517  0.4284 -0.1639
   21RA      N3  663   5.271   3.827   5.804 -0.1043  0.6605  0.0657
   21RA      C4  664   5.158   3.905   5.806 -0.0504 -0.5009 -0.8276
   21RA     C3'  665   5.293   4.082   6.218 -0.0999 -0.0478  0.2273
   21RA     H3'  666   5.340   4.175   6.188  0.6841  0.5781  3.1107
   21RA     C2'  667   5.284   3.980   6.099  0.1976  0.3005 -0.1806
   21RA    H2'1  668   5.350   4.015   6.019 -3.5078  1.4877 -2.9740
   21RA     O2'  669   5.312   3.845   6.137 -0.0723  0.5122 -0.0145
   21RA    HO'2  670   5.383   3.860   6.199 -1.1026  1.0924  1.0708
   21RA     O3'  671   5.355   4.032   6.338  0.3833  0.3313 -0.3686
   22RA       P  672   5.478   4.107   6.402 -0.1570 -0.1768  0.3983
   22RA     O1P  673   5.531   4.018   6.503 -0.0056  0.0463 -0.8848
   22RA     O2P  674   5.441   4.247   6.443 -0.3029 -0.0922 -0.2503
   22RA     O5'  675   5.576   4.114   6.285 -0.1977  0.0537  0.6090
   22RA     C5'  676   5.665   4.023   6.236  0.1988 -0.4470  0.4225
   22RA    H5'1  677   5.627   3.921   6.241 -0.9821 -0.2139 -2.1020
   22RA    H5'2  678   5.752   4.023   6.302  1.0791 -1.2640 -0.7110
   22RA     C4'  679   5.692   4.055   6.087 -0.4072 -0.5440  0.3652
   22RA     H4'  680   5.774   3.992   6.051 -0.4760  0.2194 -1.2240
   22RA     O4'  681   5.583   4.058   6.000  0.2595  0.3675 -0.7178
   22RA     C1'  682   5.610   4.128   5.881 -0.8290 -0.2578  0.1401
   22RA     H1'  683   5.626   4.058   5.798  0.7459 -0.6244  0.7204
   22RA      N9  684   5.491   4.221   5.864 -0.0175  0.0493 -0.4954
   22RA      C8  685   5.447   4.311   5.956 -0.4503 -0.1819  0.3456
   22RA      H8  686   5.491   4.316   6.055 -1.0069 -0.4970  0.6119
   22RA      N7  687   5.332   4.360   5.925  0.4784 -0.4629 -0.0977
   22RA      C5  688   5.312   4.317   5.796 -0.1071  0.0602  0.6199
   22RA      C6  689   5.203   4.319   5.701 -0.2622 -0.4179 -0.3146
   22RA      N6  690   5.086   4.378   5.718  0.1178  0.4579  0.0192
   22RA     H61  691   5.062   4.419   5.807 -1.3413 -1.3122  0.4910
   22RA     H62  692   5.024   4.371   5.639  0.7840  3.4767 -0.8994
   22RA      N1  693   5.214   4.267   5.580  0.0613 -0.0011  0.0067
   22RA      C2  694   5.328   4.203   5.554  0.2068 -0.3178 -0.5136
   22RA      H2  695   5.328   4.160   5.455 -0.8353 -0.0501 -0.6382
   22RA      N3  696   5.430   4.179   5.635 -0.5768 -0.2316  1.2023
   22RA      C4  697   5.414   4.235   5.753 -0.6564  0.6452 -0.3392
   22RA     C3'  698   5.745   4.198   6.072  0.3679  0.0737  0.7198
   22RA     H3'  699   5.673   4.265   6.118 -1.9851  0.2345 -2.7437
   22RA     C2'  700   5.738   4.209   5.922 -0.6769  0.3952  0.6448
   22RA    H2'1  701   5.729   4.313   5.893  0.3042  0.4153  0.3837
   22RA     O2'  702   5.851   4.156   5.857 -0.5947 -0.2959 -0.0522
   22RA    HO'2  703   5.858   4.203   5.773 -1.4412 -0.8014 -0.4269
   22RA     O3'  704   5.878   4.218   6.114 -0.2343  0.3007 -0.1702
   23RG       P  705   5.922   4.362   6.174  0.0792  0.2323 -0.2432
   23RG     O1P  706   6.051   4.346   6.248  0.7768  0.3283  0.4142
   23RG     O2P  707   5.816   4.425   6.249 -0.2417  0.8132 -0.1721
   23RG     O5'  708   5.936   4.440   6.039 -0.0801 -0.6597  0.1112
   23RG     C5'  709   6.047   4.434   5.958 -0.6130 -0.3936  0.1698
   23RG    H5'1  710   6.065   4.336   5.916 -1.5552 -0.1168 -0.9147
   23RG    H5'2  711   6.130   4.476   6.016 -0.8056  1.6803 -0.9550
   23RG     C4'  712   6.029   4.533   5.837  0.5469 -0.5264  0.6597
   23RG     H4'  713   6.108   4.523   5.763  0.0714  0.5182 -0.0057
   23RG     O4'  714   5.912   4.513   5.759 -0.2285  0.4878  0.4722
   23RG     C1'  715   5.851   4.639   5.728  0.3956 -0.0571  0.7140
   23RG     H1'  716   5.836   4.651   5.621 -0.5074  2.5072  1.0462
   23RG      N9  717   5.723   4.668   5.805 -0.5420 -0.3086  0.4595
   23RG      C8  718   5.680   4.619   5.927 -0.1161 -0.0680  0.5111
   23RG      H8  719   5.728   4.540   5.982 -1.3895 -1.2164  0.0116
   23RG      N7  720   5.567   4.673   5.971 -0.6979 -0.0080  0.3344
   23RG      C5  721   5.544   4.779   5.880 -0.1318 -0.5035 -0.1327
   23RG      C6  722   5.438   4.875   5.878  0.3215  0.4788  0.4762
   23RG      O6  723   5.347   4.892   5.955 -1.4685 -0.3075  0.6196
   23RG      N1  724   5.446   4.953   5.763  0.7226 -0.2140  0.6189
   23RG      H1  725   5.378   5.027   5.760 -0.7714 -1.4967  1.2367
   23RG      C2  726   5.543   4.938   5.667  0.0127  0.4697  0.6434
   23RG      N2  727   5.536   5.018   5.563 -0.1483  0.2260 -0.4868
   23RG     H21  728   5.467   5.092   5.566 -2.1300 -1.5593  1.5189
   23RG     H22  729   5.601   5.005   5.487 -1.0299  0.2709 -1.2603
   23RG      N3  730   5.643   4.858   5.673  0.5793  1.0311 -0.2797
   23RG      C4  731   5.633   4.772   5.778  0.3056 -0.4002  0.8159
   23RG     C3'  732   6.018   4.673   5.892  0.3233 -0.2157  0.0824
   23RG     H3'  733   5.961   4.681   5.984  2.6207 -0.5761  1.6311
   23RG     C2'  734   5.954   4.749   5.770 -0.1250  0.7375  0.1641
   23RG    H2'1  735   5.897   4.829   5.817 -1.4343 -1.7427  3.1686
   23RG     O2'  736   6.046   4.778   5.668 -0.1457 -0.2217  0.1366
   23RG    HO'2  737   6.005   4.818   5.591  3.2047  0.0013 -1.7305
   23RG     O3'  738   6.154   4.720   5.919  0.2040 -0.0865  0.1482
   24RG       P  739   6.170   4.850   6.017  0.1623  0.1742 -0.3283
   24RG     O1P  740   6.317   4.860   6.038  0.5027  0.1275  0.2146
   24RG     O2P  741   6.072   4.839   6.130  0.0708  0.4853  0.7717
   24RG     O5'  742   6.129   4.970   5.926 -0.1006  0.4081  0.5171
   24RG     C5'  743   6.220   5.023   5.830  0.4421  0.6813 -0.3737
   24RG    H5'1  744   6.262   4.943   5.769 -3.0803 -1.6272 -0.0505
   24RG    H5'2  745   6.295   5.074   5.891  0.0307 -1.4509  2.1073
   24RG     C4'  746   6.147   5.123   5.746  0.1357 -0.3073  0.6577
   24RG     H4'  747   6.214   5.134   5.661  2.2144 -0.9070  2.1661
   24RG     O4'  748   6.023   5.080   5.693  0.2204  0.1575 -0.3236
   24RG     C1'  749   5.921   5.180   5.700  0.4516  0.2487 -0.6504
   24RG     H1'  750   5.868   5.172   5.605 -1.0115 -1.6476  0.2725
   24RG      N9  751   5.826   5.166   5.811  0.4794  0.5911 -0.1575
   24RG      C8  752   5.826   5.087   5.926  0.3742  0.2655  0.7829
   24RG      H8  753   5.911   5.025   5.951  0.5390 -0.3780 -1.2045
   24RG      N7  754   5.715   5.091   5.993  0.0728 -0.3198  0.4295
   24RG      C5  755   5.636   5.182   5.921  0.8747  0.3107  0.4131
   24RG      C6  756   5.500   5.222   5.947 -0.4464  0.2112  0.5887
   24RG      O6  757   5.426   5.195   6.042  0.0035 -0.4869 -0.0332
   24RG      N1  758   5.459   5.317   5.857 -0.1827 -0.4331 -0.2577
   24RG      H1  759   5.365   5.353   5.865  0.3270  0.8293  0.2870
   24RG      C2  760   5.540   5.371   5.761  0.2662  0.0762  0.3559
   24RG      N2  761   5.488   5.461   5.690 -0.2350  0.0185 -0.0714
   24RG     H21  762   5.408   5.502   5.736  0.6919  1.4835  0.2958
   24RG     H22  763   5.539   5.494   5.610  2.8416 -1.4044  1.1483
   24RG      N3  764   5.660   5.319   5.725  0.5462  0.4844 -0.3291
   24RG      C4  765   5.706   5.224   5.813  0.2878  0.5367  0.4427
   24RG     C3'  766   6.112   5.259   5.806  0.0486  0.2865  0.4109
   24RG     H3'  767   6.070   5.244   5.905 -0.7537 -0.5310 -0.0357
   24RG     C2'  768   5.994   5.311   5.720  0.1610  0.9113 -0.0990
   24RG    H2'1  769   5.938   5.392   5.768  0.2298  1.0394 -0.2335
   24RG     O2'  770   6.035   5.345   5.585  0.1055 -0.0558 -0.1241
   24RG    HO'2  771   5.982   5.417   5.550  0.2289  0.4164  0.6234
   24RG     O3'  772   6.224   5.346   5.813  0.3478 -0.4288  0.4711
   25RG3      P  773   6.216   5.467   5.915  0.0571 -0.0599  0.6717
   25RG3    O1P  774   6.335   5.540   5.906 -0.0676  0.1486 -0.3493
   25RG3    O2P  775   6.189   5.400   6.046  0.0546  0.5047  0.8410
   25RG3    O5'  776   6.087   5.548   5.881 -0.5171 -0.0783  0.2896
   25RG3    C5'  777   6.084   5.631   5.777  0.0360 -0.4839  0.2877
   25RG3   H5'1  778   6.090   5.576   5.683  1.2200 -0.8790  0.5778
   25RG3   H5'2  779   6.169   5.700   5.777 -0.3979  0.0775 -0.5705
   25RG3    C4'  780   5.955   5.717   5.778 -0.1680  0.0395  0.5614
   25RG3    H4'  781   5.953   5.770   5.682 -1.1961 -1.1794 -0.1175
   25RG3    O4'  782   5.832   5.642   5.770 -0.7548 -0.6509 -0.0384
   25RG3    C1'  783   5.734   5.707   5.856  0.6863  0.8785 -0.3947
   25RG3    H1'  784   5.630   5.712   5.823  0.4825  0.6081  0.1963
   25RG3     N9  785   5.719   5.612   5.972  0.4835 -0.7123 -0.3835
   25RG3     C8  786   5.787   5.499   6.009  0.3440 -0.4724  0.6547
   25RG3     H8  787   5.874   5.457   5.962 -0.4376 -2.1599  0.6297
   25RG3     N7  788   5.731   5.436   6.106  0.1608 -0.1758  0.2716
   25RG3     C5  789   5.618   5.508   6.138  0.7179  0.7553  1.1414
   25RG3     C6  790   5.515   5.480   6.235 -0.4067  0.1509  1.3531
   25RG3     O6  791   5.496   5.376   6.297 -0.4367  0.0048  0.3653
   25RG3     N1  792   5.419   5.578   6.238  0.1566 -0.4883  0.0773
   25RG3     H1  793   5.346   5.566   6.308 -0.2876  0.7726 -0.1389
   25RG3     C2  794   5.417   5.689   6.154 -0.1709  0.2541 -1.0211
   25RG3     N2  795   5.327   5.786   6.177  0.1705 -0.3525 -0.0654
   25RG3    H21  796   5.257   5.763   6.245  0.8524 -0.1353  0.7289
   25RG3    H22  797   5.329   5.869   6.120 -0.2988 -1.1800 -1.3409
   25RG3     N3  798   5.510   5.713   6.061 -0.9081 -0.3713  0.3241
   25RG3     C4  799   5.614   5.621   6.061 -0.8349  0.2195 -0.2807
   25RG3    C3'  800   5.939   5.822   5.892 -0.1055 -0.5325  0.1046
   25RG3    H3'  801   5.970   5.778   5.986 -0.6737  1.2162  1.1461
   25RG3    C2'  802   5.784   5.850   5.890  0.0388  0.7817 -0.5446
   25RG3   H2'1  803   5.750   5.891   5.984  0.2797  2.0892 -1.0114
   25RG3    O2'  804   5.744   5.938   5.789  0.6475 -0.0162 -0.2609
   25RG3   HO'2  805   5.652   5.965   5.798  1.1407  2.2460 -1.2778
   25RG3    O3'  806   6.018   5.938   5.878  0.1619 -0.2361 -0.3897
   25RG3    H3T  807   5.959   6.003   5.917  0.0365  0.2007 -1.2866
   26RG5    O5'  808   5.086   6.396   5.863 -0.3624 -0.0187 -0.6206
   26RG5    H5T  809   5.160   6.344   5.895 -1.0772 -0.8352 -0.2447
   26RG5    C5'  810   4.979   6.313   5.912 -0.3789  0.4067  0.9530
   26RG5   H5'1  811   4.991   6.286   6.017 -1.7793  0.8042  1.2420
   26RG5   H5'2  812   4.993   6.225   5.849 -0.0145 -0.8016  2.6596
   26RG5    C4'  813   4.840   6.383   5.896 -0.1294  0.2225  0.7573
   26RG5    H4'  814   4.766   6.311   5.932  1.0500 -0.4905  1.8275
   26RG5    O4'  815   4.826   6.504   5.969 -0.3624  0.3258  0.9446
   26RG5    C1'  816   4.773   6.604   5.882 -0.5778 -1.4595  0.0238
   26RG5    H1'  817   4.700   6.662   5.938  0.8652 -1.1849  1.6917
   26RG5     N9  818   4.876   6.697   5.824 -0.0769  0.0471  0.1060
   26RG5     C8  819   5.012   6.699   5.848  1.3756 -0.8235 -0.1433
   26RG5     H8  820   5.066   6.642   5.922  0.7277  1.3919  2.2188
   26RG5     N7  821   5.071   6.799   5.791 -0.0585 -0.6611  0.3349
   26RG5     C5  822   4.966   6.873   5.727  0.1414  0.0878 -0.9148
   26RG5     C6  823   4.969   6.986   5.648  0.0408  0.2540 -0.4689
   26RG5     O6  824   5.069   7.049   5.614 -0.0629 -0.2088 -0.5736
   26RG5     N1  825   4.847   7.018   5.590 -0.3103 -0.0943  0.8575
   26RG5     H1  826   4.836   7.099   5.532  0.0241 -1.7690 -1.7247
   26RG5     C2  827   4.734   6.958   5.626  0.3662  0.2095 -0.3989
   26RG5     N2  828   4.625   7.020   5.596  0.0456  0.3378  0.0909
   26RG5    H21  829   4.636   7.108   5.547 -0.4924  0.5648  0.3622
   26RG5    H22  830   4.536   6.988   5.633  1.0129 -1.0578  1.3325
   26RG5     N3  831   4.725   6.851   5.706  0.4099 -0.3607 -0.4317
   26RG5     C4  832   4.848   6.809   5.752  0.1694  0.5304  0.4524
   26RG5    C3'  833   4.808   6.412   5.748 -1.1251 -0.0388  0.5126
   26RG5    H3'  834   4.897   6.448   5.697 -1.8096  1.4419  0.3060
   26RG5    C2'  835   4.710   6.527   5.765  0.6904  0.4805 -0.0451
   26RG5   H2'1  836   4.708   6.585   5.672 -0.8007  0.5360 -0.0048
   26RG5    O2'  837   4.584   6.479   5.816 -0.3278 -0.3092  0.1365
   26RG5   HO'2  838   4.597   6.446   5.906  2.1511 -0.6976 -0.2804
   26RG5    O3'  839   4.753   6.294   5.699 -0.2296  0.4867 -0.0374
   27RG       P  840   4.764   6.255   5.540  0.1918 -0.0526  0.2651
   27RG     O1P  841   4.720   6.111   5.523  0.2830  0.0988  0.0125
   27RG     O2P  842   4.894   6.301   5.486  0.3273 -0.6730  0.0840
   27RG     O5'  843   4.666   6.348   5.460  0.1743  0.0583  0.0362
   27RG     C5'  844   4.531   6.340   5.502 -0.9535  0.2425 -0.0013
   27RG    H5'1  845   4.513   6.348   5.609  3.8701 -1.8096  1.2522
   27RG    H5'2  846   4.487   6.248   5.465 -0.6735 -0.1694  0.6806
   27RG     C4'  847   4.465   6.458   5.441 -0.2350  0.8055  0.5095
   27RG     H4'  848   4.360   6.452   5.470 -1.1246  0.3219 -2.3947
   27RG     O4'  849   4.516   6.579   5.486  0.3368 -0.0140 -0.4533
   27RG     C1'  850   4.527   6.675   5.382  0.2740  0.0872 -0.1771
   27RG     H1'  851   4.486   6.772   5.407 -0.1696 -0.5540  1.7899
   27RG      N9  852   4.671   6.695   5.346  0.3035  0.0630  0.2470
   27RG      C8  853   4.780   6.639   5.413  0.1018 -0.3236 -0.0314
   27RG      H8  854   4.773   6.550   5.473  2.1042 -1.2866 -1.1222
   27RG      N7  855   4.894   6.700   5.383  0.2367  0.0194  0.6172
   27RG      C5  856   4.849   6.804   5.298  0.0590 -0.3692 -0.5503
   27RG      C6  857   4.928   6.915   5.240  0.3559  0.0142  0.9584
   27RG      O6  858   5.051   6.927   5.228 -0.0497  0.0233  0.3072
   27RG      N1  859   4.851   7.010   5.182  0.0874  0.1661  0.0743
   27RG      H1  860   4.902   7.085   5.138  2.3475 -1.1679  0.2794
   27RG      C2  861   4.720   6.988   5.153  0.4027 -0.6089 -0.4247
   27RG      N2  862   4.666   7.061   5.058  0.5423  0.7502  0.7118
   27RG     H21  863   4.721   7.124   5.002  0.2838  0.3709  0.0176
   27RG     H22  864   4.568   7.042   5.039  0.3451  0.9714  1.4693
   27RG      N3  865   4.640   6.892   5.197 -0.1200  0.3084  0.8363
   27RG      C4  866   4.714   6.800   5.272 -0.1696 -0.2722  0.3075
   27RG     C3'  867   4.475   6.460   5.290  0.6260  0.0847  0.7945
   27RG     H3'  868   4.569   6.415   5.259  0.7180  0.8557 -0.0919
   27RG     C2'  869   4.461   6.612   5.260  0.4941 -0.4116 -0.9305
   27RG    H2'1  870   4.514   6.630   5.166  1.3260  0.8572 -0.2470
   27RG     O2'  871   4.328   6.657   5.249  0.0363  0.0222 -0.3223
   27RG    HO'2  872   4.271   6.579   5.247  0.1142 -0.0282 -0.8420
   27RG     O3'  873   4.370   6.387   5.225 -0.4546 -0.4559 -0.1884
   28RC       P  874   4.392   6.291   5.102 -0.1250 -0.6745 -0.4431
   28RC     O1P  875   4.267   6.226   5.065 -0.1378 -0.8074 -0.2014
   28RC     O2P  876   4.510   6.210   5.116  0.2516 -0.4220  0.2229
   28RC     O5'  877   4.411   6.396   4.985 -0.5311  0.4770  0.2014
   28RC     C5'  878   4.303   6.462   4.918  0.3120  0.0690  0.0773
   28RC    H5'1  879   4.226   6.500   4.984  0.6006  1.8815 -0.5812
   28RC    H5'2  880   4.262   6.388   4.850  2.9131 -2.1956  0.7544
   28RC     C4'  881   4.354   6.579   4.835  0.8319  0.1125  0.0375
   28RC     H4'  882   4.263   6.631   4.803 -0.6165 -2.6147 -0.6591
   28RC     O4'  883   4.422   6.672   4.915  0.0034  0.2159 -0.0438
   28RC     C1'  884   4.513   6.745   4.829  0.0588  0.8113 -0.2126
   28RC     H1'  885   4.490   6.851   4.834 -2.4350  0.3003  1.4699
   28RC      N1  886   4.649   6.724   4.871  0.5077 -0.1505  1.0395
   28RC      C6  887   4.679   6.623   4.959 -0.3233  0.5680  0.0825
   28RC      H6  888   4.605   6.555   5.000  0.8296 -0.4413  0.5363
   28RC      C5  889   4.810   6.613   4.990  0.0267 -0.1553 -0.5508
   28RC      H5  890   4.833   6.536   5.061 -1.6279 -1.8435 -1.7285
   28RC      C4  891   4.902   6.714   4.948 -0.0851 -0.4540 -0.1538
   28RC      N4  892   5.022   6.729   5.001 -0.4414  0.4135  0.3145
   28RC     H41  893   5.060   6.669   5.073 -1.4162  0.1984  0.6545
   28RC     H42  894   5.083   6.802   4.967 -0.9218  1.4597  1.6316
   28RC      N3  895   4.870   6.810   4.866 -0.4123  0.3099  0.2181
   28RC      C2  896   4.746   6.809   4.818  0.4379 -0.5911  0.0297
   28RC      O2  897   4.715   6.903   4.743  0.0351 -0.2155  0.0625
   28RC     C3'  898   4.439   6.533   4.716  0.5470 -0.4626  0.0697
   28RC     H3'  899   4.518   6.469   4.755 -2.0186 -1.8076  3.5008
   28RC     C2'  900   4.501   6.676   4.691  0.3001  0.2805  0.0547
   28RC    H2'1  901   4.595   6.656   4.640 -0.6075 -0.0095 -1.5869
   28RC     O2'  902   4.400   6.747   4.614  0.3894  0.1198  0.3262
   28RC    HO'2  903   4.388   6.711   4.526  0.6205  0.8901 -0.0296
   28RC     O3'  904   4.372   6.484   4.601 -0.3400  0.2632 -0.2438
   29RA       P  905   4.417   6.347   4.534 -0.0579 -0.2038 -0.4244
   29RA     O1P  906   4.300   6.302   4.454 -0.2421 -0.1951 -0.2666
   29RA     O2P  907   4.487   6.258   4.628 -0.3773  0.3670 -0.2783
   29RA     O5'  908   4.527   6.392   4.429 -0.3384 -0.4221 -0.4431
   29RA     C5'  909   4.493   6.451   4.310 -0.0657 -0.3154  0.4225
   29RA    H5'1  910   4.408   6.516   4.332 -0.1870  0.0082 -0.9083
   29RA    H5'2  911   4.469   6.383   4.229  0.5531  0.8302 -0.7685
   29RA     C4'  912   4.597   6.547   4.250 -0.0204 -1.0210 -0.4041
   29RA     H4'  913   4.554   6.585   4.157 -1.5277 -0.6810  0.3899
   29RA     O4'  914   4.628   6.645   4.350 -0.1554  0.1279  0.1933
   29RA     C1'  915   4.762   6.694   4.338 -0.6622  0.6744 -0.2218
   29RA     H1'  916   4.762   6.802   4.320 -1.3754  0.9707  1.4295
   29RA      N9  917   4.846   6.663   4.454  0.2883  0.7349 -0.9515
   29RA      C8  918   4.830   6.552   4.531 -0.6374  0.2721  0.0572
   29RA      H8  919   4.759   6.474   4.509  0.3517 -1.1188  1.5567
   29RA      N7  920   4.920   6.545   4.620 -0.4507 -0.3464 -0.1199
   29RA      C5  921   5.010   6.652   4.590  0.3891  0.1816 -0.1836
   29RA      C6  922   5.123   6.711   4.653  0.3794  0.9873 -0.2651
   29RA      N6  923   5.184   6.654   4.754 -0.0374 -0.2007  0.4457
   29RA     H61  924   5.134   6.581   4.802 -0.4025 -1.6335 -1.9808
   29RA     H62  925   5.274   6.685   4.788  1.1696  0.9994 -3.3691
   29RA      N1  926   5.187   6.811   4.595  0.6252  0.3264 -0.8502
   29RA      C2  927   5.123   6.874   4.498  0.6330 -0.4199 -0.0439
   29RA      H2  928   5.186   6.946   4.448  0.4822 -1.5731 -2.0012
   29RA      N3  929   5.010   6.841   4.437 -1.1615  0.0096  0.2177
   29RA      C4  930   4.955   6.730   4.494  0.1446  0.7062  0.1152
   29RA     C3'  931   4.733   6.491   4.212  0.1454  0.1320  1.1029
   29RA     H3'  932   4.754   6.423   4.294  1.2657  0.7079  1.3043
   29RA     C2'  933   4.819   6.620   4.216  0.3504 -0.0044 -0.5223
   29RA    H2'1  934   4.923   6.594   4.235  0.1302 -0.7540 -0.2937
   29RA     O2'  935   4.810   6.704   4.099 -0.1776  0.1916  0.1001
   29RA    HO'2  936   4.885   6.763   4.091  0.3316 -0.3022  0.9744
   29RA     O3'  937   4.736   6.419   4.085  0.6497 -0.0386  0.3510
   30RG       P  938   4.860   6.320   4.062 -0.0371 -0.1208  0.3532
   30RG     O1P  939   4.856   6.270   3.925  0.2398  0.1578  0.2075
   30RG     O2P  940   4.856   6.232   4.177 -0.7315  0.8950  1.1378
   30RG     O5'  941   5.000   6.401   4.071 -0.0752 -0.1729  0.3053
   30RG     C5'  942   5.039   6.499   3.975  0.0325  0.3494 -0.6039
   30RG    H5'1  943   4.966   6.580   3.986  0.1342  0.2889  0.7086
   30RG    H5'2  944   5.043   6.450   3.878 -0.5273 -0.8604 -0.0247
   30RG     C4'  945   5.176   6.557   4.011 -0.9258 -0.2919 -0.5038
   30RG     H4'  946   5.195   6.630   3.932 -0.2210  0.2053  0.1092
   30RG     O4'  947   5.169   6.629   4.134  0.0221 -0.0431  0.1889
   30RG     C1'  948   5.301   6.626   4.188  0.1156 -0.1591  0.3359
   30RG     H1'  949   5.342   6.726   4.197 -1.8878  0.8499 -0.9685
   30RG      N9  950   5.303   6.558   4.320 -0.0018 -0.8003  0.3416
   30RG      C8  951   5.209   6.479   4.373  0.2676  0.7998 -0.9182
   30RG      H8  952   5.120   6.450   4.319  1.2240 -1.8182 -1.2314
   30RG      N7  953   5.230   6.445   4.498 -0.0136  0.0841  0.1710
   30RG      C5  954   5.347   6.508   4.530  0.1340  0.6784 -0.2330
   30RG      C6  955   5.430   6.505   4.642 -1.1859 -0.0611 -1.1349
   30RG      O6  956   5.404   6.462   4.751  0.3777 -0.9498  0.2912
   30RG      N1  957   5.557   6.556   4.624  0.0760 -0.5041  0.5635
   30RG      H1  958   5.613   6.578   4.705  0.0440  0.3585  0.3618
   30RG      C2  959   5.592   6.626   4.514 -1.0688 -0.1868  0.0087
   30RG      N2  960   5.709   6.675   4.521  0.5050 -0.1038  0.3050
   30RG     H21  961   5.769   6.666   4.602 -0.1010  0.7227  0.8653
   30RG     H22  962   5.747   6.719   4.438 -0.3255  1.5128  0.7384
   30RG      N3  963   5.520   6.638   4.399  0.3004 -0.2723 -0.8076
   30RG      C4  964   5.396   6.570   4.415 -0.4095 -0.2915 -0.2728
   30RG     C3'  965   5.294   6.461   4.020 -0.1960  0.2561  0.0917
   30RG     H3'  966   5.253   6.387   4.089 -0.4745  0.2221 -0.1093
   30RG     C2'  967   5.392   6.550   4.094 -0.0741 -0.5590 -0.5473
   30RG    H2'1  968   5.452   6.480   4.152  0.3261  0.3590  0.1522
   30RG     O2'  969   5.461   6.636   4.006  0.1249  0.0353  0.3892
   30RG    HO'2  970   5.453   6.620   3.912  3.0376  0.5957 -0.0565
   30RG     O3'  971   5.332   6.398   3.899  0.2084  0.3404 -0.0443
   31RA       P  972   5.389   6.257   3.897  0.5139  0.3930  0.1533
   31RA     O1P  973   5.422   6.223   3.759  0.0309 -0.1994  0.0700
   31RA     O2P  974   5.294   6.162   3.959 -0.4587 -0.2554 -0.0749
   31RA     O5'  975   5.522   6.253   3.984  0.6055  0.4385  0.3994
   31RA     C5'  976   5.631   6.326   3.937 -0.1151 -0.5064  0.2650
   31RA    H5'1  977   5.607   6.424   3.897 -1.8850 -0.6563  0.8607
   31RA    H5'2  978   5.678   6.271   3.856  0.3963 -0.8834  0.8127
   31RA     C4'  979   5.747   6.350   4.042 -0.1022  0.1063 -0.2173
   31RA     H4'  980   5.816   6.426   4.006  0.3559  1.1842  2.7274
   31RA     O4'  981   5.702   6.417   4.160 -0.5306  0.2650  0.6803
   31RA     C1'  982   5.784   6.384   4.267 -0.5873 -0.2067  0.2904
   31RA     H1'  983   5.833   6.473   4.307 -1.5388  0.6061 -0.3011
   31RA      N9  984   5.695   6.330   4.371  0.7637 -0.1717  0.1721
   31RA      C8  985   5.561   6.285   4.353 -0.3704  0.2226 -0.1754
   31RA      H8  986   5.512   6.293   4.257 -0.3856  3.2575  0.0201
   31RA      N7  987   5.509   6.233   4.459 -0.4227  0.4378 -0.3544
   31RA      C5  988   5.614   6.243   4.555 -0.1787 -0.2984 -0.5967
   31RA      C6  989   5.627   6.218   4.688 -0.1372  0.4555 -0.3855
   31RA      N6  990   5.532   6.174   4.770 -0.3306 -0.4543  0.4162
   31RA     H61  991   5.441   6.150   4.732 -0.5182 -2.0827  1.7652
   31RA     H62  992   5.554   6.149   4.865  0.0315 -1.4262  0.0891
   31RA      N1  993   5.733   6.229   4.759 -0.5927  0.2469  0.7851
   31RA      C2  994   5.842   6.273   4.692  0.3947 -0.2100 -0.1473
   31RA      H2  995   5.931   6.291   4.751  0.8521 -0.2590 -0.8135
   31RA      N3  996   5.848   6.318   4.565  0.4202 -0.3372 -0.3743
   31RA      C4  997   5.728   6.295   4.499  0.4211  0.2286  0.1944
   31RA     C3'  998   5.820   6.222   4.102  0.5083 -0.0885 -0.3325
   31RA     H3'  999   5.743   6.152   4.133  0.6500 -1.0646 -2.0402
   31RA     C2' 1000   5.891   6.290   4.221 -0.3801 -0.3911 -0.3010
   31RA    H2'1 1001   5.924   6.217   4.295 -0.9445 -1.3230 -0.9542
   31RA     O2' 1002   5.999   6.358   4.185  0.2361  0.5796  0.5404
   31RA    HO'2 1003   6.048   6.292   4.135 -0.9025  0.3185 -0.2695
   31RA     O3' 1004   5.907   6.166   4.005  0.5852 -0.3777 -0.0245
   32RG       P 1005   5.909   6.002   3.992  0.1994 -0.1193  0.0497
   32RG     O1P 1006   5.995   5.964   3.877  0.1497 -0.4574  0.0356
   32RG     O2P 1007   5.767   5.962   4.006  0.2097  0.1009  0.2327
   32RG     O5' 1008   5.988   5.974   4.127  0.2724  0.2149  0.2620
   32RG     C5' 1009   6.116   6.018   4.158  0.3071 -0.2178 -0.4372
   32RG    H5'1 1010   6.123   6.124   4.131 -2.1901  0.3561  0.8856
   32RG    H5'2 1011   6.187   5.969   4.092  0.9420 -0.7907  0.6322
   32RG     C4' 1012   6.153   5.986   4.301 -0.5288 -1.0175  0.3455
   32RG     H4' 1013   6.255   6.015   4.326 -0.2097 -2.3313  0.6162
   32RG     O4' 1014   6.075   6.055   4.394  0.0711  0.4584 -0.5304
   32RG     C1' 1015   6.045   5.970   4.499  0.0842 -0.3589  0.0750
   32RG     H1' 1016   6.086   6.023   4.585 -0.5928  0.1610  0.0877
   32RG      N9 1017   5.896   5.952   4.506 -0.0629 -0.5372  0.5484
   32RG      C8 1018   5.815   5.961   4.402  0.8115 -0.2597  0.0657
   32RG      H8 1019   5.844   6.005   4.308 -0.3598 -0.3252 -0.3497
   32RG      N7 1020   5.690   5.927   4.426 -0.5581  0.0143 -0.8615
   32RG      C5 1021   5.700   5.871   4.560 -0.1917  0.5030  0.2591
   32RG      C6 1022   5.601   5.819   4.655  0.2869  0.0368 -0.3189
   32RG      O6 1023   5.480   5.804   4.648  0.0555  0.4047  0.3381
   32RG      N1 1024   5.659   5.806   4.783 -0.5714  0.1376 -0.0483
   32RG      H1 1025   5.594   5.795   4.860  1.6193  0.8534  2.0193
   32RG      C2 1026   5.790   5.819   4.811  0.0557  0.1820 -0.5781
   32RG      N2 1027   5.830   5.783   4.931 -0.2195 -0.2227  0.5860
   32RG     H21 1028   5.773   5.755   5.009 -1.2420 -1.6709 -0.6227
   32RG     H22 1029   5.928   5.778   4.957 -0.2012 -2.2892  0.3543
   32RG      N3 1030   5.881   5.853   4.724  0.1540  0.5729 -0.0521
   32RG      C4 1031   5.827   5.894   4.606 -0.1923  0.0636  0.1686
   32RG     C3' 1032   6.132   5.835   4.330  0.3742  0.4052  0.0415
   32RG     H3' 1033   6.033   5.803   4.297  0.1065  0.4494  0.7857
   32RG     C2' 1034   6.122   5.836   4.482  0.4037  0.5104 -0.7219
   32RG    H2'1 1035   6.063   5.748   4.511  0.1436  0.6104 -0.9487
   32RG     O2' 1036   6.251   5.824   4.543  0.6378  0.6856  0.3998
   32RG    HO'2 1037   6.286   5.735   4.537 -0.7043 -0.0917  2.9016
   32RG     O3' 1038   6.231   5.746   4.271 -0.2225 -0.0193 -0.3191
   33RA       P 1039   6.234   5.590   4.288  0.0591  0.4801 -0.2023
   33RA     O1P 1040   6.303   5.524   4.175 -0.1800  0.1107  0.1853
   33RA     O2P 1041   6.097   5.553   4.307 -0.3494 -0.2300  0.1685
   33RA     O5' 1042   6.311   5.558   4.421 -0.0421 -0.3173 -0.4458
   33RA     C5' 1043   6.453   5.556   4.433  0.1694 -0.1414 -0.3277
   33RA    H5'1 1044   6.491   5.656   4.411  1.0566 -0.1942  0.8587
   33RA    H5'2 1045   6.487   5.477   4.366  3.2958  0.3683  0.4891
   33RA     C4' 1046   6.507   5.523   4.574  0.1524 -0.0614  0.1844
   33RA     H4' 1047   6.608   5.565   4.583 -0.9873  3.0735 -0.2975
   33RA     O4' 1048   6.418   5.593   4.659 -0.3754 -0.0614  0.3734
   33RA     C1' 1049   6.424   5.540   4.788  0.2198 -0.2223  0.3810
   33RA     H1' 1050   6.473   5.609   4.856 -0.7617 -0.9462  1.8894
   33RA      N9 1051   6.285   5.517   4.841  0.2871 -0.5250 -0.0883
   33RA      C8 1052   6.156   5.525   4.789  0.4682  0.0287  0.1159
   33RA      H8 1053   6.135   5.552   4.687  0.5439  2.8503  0.7773
   33RA      N7 1054   6.063   5.510   4.885  0.3298 -0.0147 -0.4544
   33RA      C5 1055   6.138   5.490   5.003 -0.5778 -0.7663 -0.1263
   33RA      C6 1056   6.108   5.483   5.138 -0.6400 -0.5210 -0.0683
   33RA      N6 1057   5.982   5.487   5.180  0.1350 -0.5885 -0.8404
   33RA     H61 1058   5.904   5.508   5.119 -0.2534  1.1543  0.1741
   33RA     H62 1059   5.973   5.480   5.281 -0.0073 -3.9858 -0.9778
   33RA      N1 1060   6.201   5.492   5.234 -0.0694  0.0759  0.3146
   33RA      C2 1061   6.323   5.496   5.193 -0.3923 -0.6608 -0.1291
   33RA      H2 1062   6.391   5.498   5.277  1.5029  1.1381 -1.5763
   33RA      N3 1063   6.369   5.493   5.068  0.4956 -0.0804  0.2085
   33RA      C4 1064   6.270   5.498   4.977 -0.0917  0.1155 -0.1705
   33RA     C3' 1065   6.490   5.389   4.621  0.3328  0.1489 -0.0825
   33RA     H3' 1066   6.386   5.372   4.593  1.1236 -0.5800 -2.8265
   33RA     C2' 1067   6.500   5.413   4.772 -0.4711  0.1217 -0.7813
   33RA    H2'1 1068   6.458   5.328   4.826  1.0233 -0.2433 -0.1480
   33RA     O2' 1069   6.642   5.425   4.806  0.0301 -0.3735 -0.2205
   33RA    HO'2 1070   6.680   5.338   4.790  0.4574  0.1542 -2.3398
   33RA     O3' 1071   6.576   5.294   4.572 -0.1579  0.4291 -0.1399
   34RA       P 1072   6.526   5.140   4.568 -0.5879 -0.3442  0.0294
   34RA     O1P 1073   6.608   5.066   4.471  0.0755 -0.2417  0.6507
   34RA     O2P 1074   6.384   5.160   4.536 -0.3179 -0.3247 -0.6683
   34RA     O5' 1075   6.540   5.079   4.711  0.0789  0.4211  0.4981
   34RA     C5' 1076   6.665   5.058   4.773  0.5412  0.2475 -0.0738
   34RA    H5'1 1077   6.750   5.119   4.742  0.1420  0.7502 -0.1907
   34RA    H5'2 1078   6.708   4.960   4.749  0.6153  0.1775  0.3441
   34RA     C4' 1079   6.653   5.068   4.928  0.1262  0.0277  0.7936
   34RA     H4' 1080   6.750   5.068   4.980  1.3673 -2.6158 -1.2883
   34RA     O4' 1081   6.575   5.186   4.964  0.0422 -0.0606 -0.0710
   34RA     C1' 1082   6.501   5.159   5.076  0.1016  0.2490 -0.3492
   34RA     H1' 1083   6.510   5.226   5.161 -3.0028 -1.3651  1.4192
   34RA      N9 1084   6.351   5.149   5.056 -0.1396  0.2451 -0.0757
   34RA      C8 1085   6.283   5.125   4.940 -0.0830  0.7899 -0.1708
   34RA      H8 1086   6.324   5.125   4.840 -0.8682  0.2748 -0.4984
   34RA      N7 1087   6.155   5.106   4.957  0.5086 -0.7806 -0.0841
   34RA      C5 1088   6.135   5.121   5.094  0.2881 -0.0983 -0.1005
   34RA      C6 1089   6.018   5.120   5.173 -1.0274  0.5564 -0.0065
   34RA      N6 1090   5.892   5.098   5.140 -0.4412 -0.1884  1.0372
   34RA     H61 1091   5.864   5.098   5.042 -2.9277  2.3545  1.5965
   34RA     H62 1092   5.826   5.082   5.214 -2.4274  3.6981  0.4117
   34RA      N1 1093   6.029   5.140   5.302 -0.4249 -0.8084  0.1299
   34RA      C2 1094   6.148   5.177   5.351  0.5302 -0.5428  0.0933
   34RA      H2 1095   6.151   5.190   5.458  0.4683 -3.1371  0.4757
   34RA      N3 1096   6.265   5.181   5.288 -0.0096  0.5148  0.6077
   34RA      C4 1097   6.252   5.156   5.152 -0.7908  0.5257 -1.5783
   34RA     C3' 1098   6.578   4.954   4.988  0.1167  0.0580  0.0859
   34RA     H3' 1099   6.484   4.943   4.934  0.1182  1.7385 -0.3251
   34RA     C2' 1100   6.545   5.018   5.117 -0.4972  0.3294 -0.0759
   34RA    H2'1 1101   6.471   4.962   5.175 -0.8677  0.6411 -0.2479
   34RA     O2' 1102   6.656   5.019   5.202 -0.3684 -0.6383 -0.1871
   34RA    HO'2 1103   6.694   4.931   5.197  1.7348  0.2000 -0.0284
   34RA     O3' 1104   6.640   4.831   4.989  0.0891  0.6367  0.1859
   35RA       P 1105   6.564   4.694   4.989 -0.1519 -0.2526  0.1987
   35RA     O1P 1106   6.677   4.602   4.978  0.3753 -0.2069 -0.2084
   35RA     O2P 1107   6.459   4.697   4.884  0.1378  0.2192  0.2617
   35RA     O5' 1108   6.493   4.682   5.126 -0.0851  0.1860  0.4160
   35RA     C5' 1109   6.568   4.671   5.241  0.3291  0.1657 -0.8445
   35RA    H5'1 1110   6.654   4.738   5.246  1.4716 -1.2711 -0.4222
   35RA    H5'2 1111   6.618   4.574   5.241  1.5287  0.7094 -3.0193
   35RA     C4' 1112   6.473   4.696   5.360  0.2961  0.6796  0.3093
   35RA     H4' 1113   6.532   4.708   5.452 -0.1010  1.1909  0.5048
   35RA     O4' 1114   6.391   4.810   5.344 -0.5291 -0.7416  0.1258
   35RA     C1' 1115   6.260   4.785   5.398 -0.4717 -0.7850 -0.3195
   35RA     H1' 1116   6.233   4.860   5.473 -2.6202  0.3059 -2.0542
   35RA      N9 1117   6.160   4.782   5.288 -0.8206 -0.3934 -0.3961
   35RA      C8 1118   6.192   4.787   5.156  0.3763 -0.4678  0.6009
   35RA      H8 1119   6.293   4.793   5.118 -0.3495 -1.9548 -1.8140
   35RA      N7 1120   6.091   4.787   5.072 -0.3303  1.1662 -0.3127
   35RA      C5 1121   5.981   4.773   5.158 -1.1660  0.2612  0.0385
   35RA      C6 1122   5.843   4.763   5.137 -0.2050 -1.1706 -0.0519
   35RA      N6 1123   5.790   4.759   5.019 -0.7757  0.4459  0.0101
   35RA     H61 1124   5.857   4.774   4.945  1.1838 -2.1740  1.0948
   35RA     H62 1125   5.690   4.766   5.005 -0.8252 -1.5545 -0.9522
   35RA      N1 1126   5.756   4.763   5.241 -0.5720  0.4364 -0.5036
   35RA      C2 1127   5.805   4.768   5.363  0.1618  0.5456 -0.2829
   35RA      H2 1128   5.731   4.773   5.442  1.0022  1.3699  0.4834
   35RA      N3 1129   5.938   4.776   5.402 -0.0241 -0.6641 -0.1039
   35RA      C4 1130   6.023   4.771   5.292  0.3479 -0.8313  0.2910
   35RA     C3' 1131   6.383   4.579   5.387 -0.0218 -0.3407  0.4038
   35RA     H3' 1132   6.349   4.537   5.292  1.7208  0.7919 -0.7871
   35RA     C2' 1133   6.269   4.641   5.461  0.4610 -0.5857 -0.1283
   35RA    H2'1 1134   6.173   4.591   5.446 -0.1727  0.1752  1.1812
   35RA     O2' 1135   6.295   4.647   5.604 -0.2460  0.1152 -0.1644
   35RA    HO'2 1136   6.220   4.694   5.642  1.5763  1.6612  1.8045
   35RA     O3' 1137   6.439   4.481   5.477  0.1516  0.2133  0.3683
   36RC       P 1138   6.454   4.325   5.445  0.2196  0.4922 -0.0507
   36RC     O1P 1139   6.547   4.278   5.550  0.0352 -0.5582  0.0659
   36RC     O2P 1140   6.495   4.314   5.306 -0.0034 -0.0947  0.1127
   36RC     O5' 1141   6.312   4.261   5.474 -0.0316  0.3989 -0.4188
   36RC     C5' 1142   6.258   4.266   5.603 -0.6289 -0.1049  0.8266
   36RC    H5'1 1143   6.303   4.354   5.649  0.5690 -1.1705  1.7531
   36RC    H5'2 1144   6.285   4.179   5.663 -0.1106  0.5588  1.5715
   36RC     C4' 1145   6.110   4.276   5.596 -0.0899 -0.0452 -0.5846
   36RC     H4' 1146   6.080   4.286   5.700  0.7001  2.0003 -0.5110
   36RC     O4' 1147   6.077   4.393   5.524 -0.3216 -0.2476 -0.3209
   36RC     C1' 1148   5.957   4.362   5.441  0.4481 -0.1184 -0.7991
   36RC     H1' 1149   5.888   4.445   5.460  3.4697  2.6089 -0.7384
   36RC      N1 1150   5.978   4.365   5.296  0.7752 -0.7829  0.2205
   36RC      C6 1151   6.105   4.381   5.246 -0.6032  0.8176 -0.5449
   36RC      H6 1152   6.187   4.360   5.312 -0.3756 -2.4870 -1.7224
   36RC      C5 1153   6.132   4.426   5.120  0.2719 -0.6291  0.8914
   36RC      H5 1154   6.229   4.446   5.078  0.4848  0.1592  1.7122
   36RC      C4 1155   6.010   4.438   5.040  0.8753 -0.0238 -0.7781
   36RC      N4 1156   6.017   4.473   4.917 -0.5714 -0.7682  0.8373
   36RC     H41 1157   6.103   4.514   4.883 -1.6703  0.6876 -0.3245
   36RC     H42 1158   5.930   4.484   4.866 -0.0870 -1.7056 -0.2369
   36RC      N3 1159   5.885   4.422   5.086  0.0172 -0.4306  0.1335
   36RC      C2 1160   5.869   4.391   5.215 -0.3822 -0.0573 -0.1048
   36RC      O2 1161   5.755   4.382   5.255  0.1221 -0.4179  0.5020
   36RC     C3' 1162   6.031   4.151   5.541  0.3120 -0.6741  0.2504
   36RC     H3' 1163   6.072   4.114   5.447  0.8594  2.4947 -0.8682
   36RC     C2' 1164   5.908   4.225   5.497  0.2491  0.0415 -0.0089
   36RC    H2'1 1165   5.858   4.159   5.426 -0.6851 -0.2096  0.8663
   36RC     O2' 1166   5.820   4.255   5.607  0.1656 -0.4400 -0.1923
   36RC    HO'2 1167   5.744   4.299   5.567 -0.4121 -0.2940  1.0164
   36RC     O3' 1168   6.012   4.052   5.639  0.7649 -0.1170 -0.2280
   37RA       P 1169   6.001   3.906   5.599 -0.0278 -0.4949  0.2577
   37RA     O1P 1170   5.982   3.830   5.720 -0.3291 -0.1008  0.4986
   37RA     O2P 1171   6.114   3.875   5.506 -0.6368  0.1469  0.0878
   37RA     O5' 1172   5.857   3.893   5.519  0.2916  0.1891 -0.0340
   37RA     C5' 1173   5.734   3.925   5.590 -0.5463  0.7543 -0.0944
   37RA    H5'1 1174   5.750   4.015   5.650 -1.0565  2.1657 -2.0033
   37RA    H5'2 1175   5.719   3.855   5.673 -2.0869  1.7843  0.5309
   37RA     C4' 1176   5.616   3.934   5.495  0.4219  0.0290 -0.2745
   37RA     H4' 1177   5.526   3.940   5.556  0.3207 -1.6211 -0.2356
   37RA     O4' 1178   5.626   4.051   5.406 -0.3494  0.6298 -0.0881
   37RA     C1' 1179   5.572   4.009   5.284  0.1914 -0.6150 -0.4986
   37RA     H1' 1180   5.486   4.072   5.261 -0.1394  0.3931  2.8722
   37RA      N9 1181   5.682   4.020   5.187  0.7064  0.4947  0.4566
   37RA      C8 1182   5.813   4.015   5.204 -0.6619  0.0492  1.0437
   37RA      H8 1183   5.861   3.983   5.296 -0.2860 -1.1046  0.4690
   37RA      N7 1184   5.882   4.054   5.100  0.2707  0.1887 -0.4885
   37RA      C5 1185   5.786   4.084   5.006 -0.4235 -0.4518  0.4310
   37RA      C6 1186   5.792   4.124   4.871  0.3605  0.1384 -0.0561
   37RA      N6 1187   5.904   4.141   4.803  0.0558  0.8488  0.2724
   37RA     H61 1188   5.994   4.140   4.848  0.2783  4.2176  0.1609
   37RA     H62 1189   5.901   4.184   4.711 -0.9874  2.5291  1.0290
   37RA      N1 1190   5.684   4.145   4.794  0.4207  0.6009 -0.0158
   37RA      C2 1191   5.567   4.116   4.855 -0.0237  0.2673 -1.0672
   37RA      H2 1192   5.477   4.124   4.796 -0.0249  3.1787 -0.8042
   37RA      N3 1193   5.542   4.079   4.982 -0.6500  0.0254 -0.4332
   37RA      C4 1194   5.660   4.064   5.058 -0.2016  0.2132  0.1407
   37RA     C3' 1195   5.602   3.811   5.407 -0.2362  0.0636  0.5562
   37RA     H3' 1196   5.697   3.774   5.368  0.0110  0.4748  0.7661
   37RA     C2' 1197   5.526   3.864   5.290 -0.6472  0.0731 -0.2525
   37RA    H2'1 1198   5.546   3.809   5.197 -0.2818 -2.0260  0.9919
   37RA     O2' 1199   5.390   3.870   5.318  0.3749  0.2853  0.4206
   37RA    HO'2 1200   5.371   3.828   5.402  2.2893 -1.9956 -0.1860
   37RA     O3' 1201   5.538   3.707   5.475  0.6690 -0.7018 -0.4548
   38RC       P 1202   5.562   3.557   5.434 -0.1965  0.1168  0.1928
   38RC     O1P 1203   5.479   3.470   5.516  0.7237 -0.4480  0.0446
   38RC     O2P 1204   5.705   3.526   5.450  0.5176  0.1114  0.8340
   38RC     O5' 1205   5.536   3.547   5.274 -0.4335  0.0342  0.0117
   38RC     C5' 1206   5.414   3.553   5.203  0.2616 -0.3718 -0.6652
   38RC    H5'1 1207   5.361   3.648   5.211 -0.1144 -0.6508  0.3101
   38RC    H5'2 1208   5.346   3.474   5.233 -1.4550  1.0842 -0.5334
   38RC     C4' 1209   5.442   3.532   5.057  0.0753  0.0524 -0.3757
   38RC     H4' 1210   5.348   3.530   5.002 -0.3708  1.0414  0.3229
   38RC     O4' 1211   5.527   3.630   5.008  0.4106  0.2973  0.9883
   38RC     C1' 1212   5.627   3.572   4.925 -0.2927 -0.9218  0.2762
   38RC     H1' 1213   5.598   3.567   4.820 -0.2432 -0.9249  0.2625
   38RC      N1 1214   5.753   3.646   4.918 -1.0823  0.7065  0.1873
   38RC      C6 1215   5.826   3.672   5.031  0.6479  0.2445 -0.4167
   38RC      H6 1216   5.785   3.645   5.127  0.4606  0.8337 -0.3260
   38RC      C5 1217   5.946   3.732   5.024  0.1517  0.3294  0.7438
   38RC      H5 1218   6.003   3.753   5.114  0.2966  1.6099  0.3638
   38RC      C4 1219   5.996   3.762   4.896  0.1919  0.0912 -0.6366
   38RC      N4 1220   6.117   3.814   4.879  0.7290  0.2395 -0.3846
   38RC     H41 1221   6.182   3.808   4.956 -0.9443 -2.2664  0.9687
   38RC     H42 1222   6.145   3.856   4.792  1.4094  0.3898 -0.1009
   38RC      N3 1223   5.930   3.738   4.787 -0.0897  0.4122 -0.7986
   38RC      C2 1224   5.808   3.684   4.793 -0.2123 -0.8365 -0.7441
   38RC      O2 1225   5.751   3.664   4.687  0.0329 -0.0101  0.0126
   38RC     C3' 1226   5.507   3.394   5.027  0.3528  0.2207  0.3838
   38RC     H3' 1227   5.512   3.334   5.118  1.2671  0.1759  0.3150
   38RC     C2' 1228   5.646   3.433   4.972  0.3723  0.0841  0.3592
   38RC    H2'1 1229   5.726   3.425   5.045  1.0127  1.7811 -0.1005
   38RC     O2' 1230   5.670   3.355   4.858  0.1904  0.0911 -0.5621
   38RC    HO'2 1231   5.593   3.378   4.806 -0.0347  0.9750  0.1314
   38RC     O3' 1232   5.423   3.338   4.932 -0.1117 -0.3898 -0.0232
   39RA       P 1233   5.368   3.192   4.946  0.0266 -0.0740 -0.9144
   39RA     O1P 1234   5.259   3.200   5.048 -0.5308 -0.4260 -0.4092
   39RA     O2P 1235   5.478   3.103   4.972  0.3963  0.5042  0.1240
   39RA     O5' 1236   5.302   3.146   4.811  0.3598 -0.0914 -0.1956
   39RA     C5' 1237   5.162   3.105   4.801 -0.6305  0.1817  0.1017
   39RA    H5'1 1238   5.105   3.171   4.868  0.9411  0.3017  1.3745
   39RA    H5'2 1239   5.142   3.002   4.829 -1.0058  0.2757  0.1939
   39RA     C4' 1240   5.106   3.119   4.656 -0.3555 -0.0651  0.8230
   39RA     H4' 1241   5.001   3.091   4.661 -0.7176  1.3317  1.3819
   39RA     O4' 1242   5.104   3.257   4.610 -0.6214  0.3616 -0.3001
   39RA     C1' 1243   5.171   3.269   4.490  0.3282  0.3308  0.5561
   39RA     H1' 1244   5.121   3.341   4.424 -2.4169 -1.3818  0.5965
   39RA      N9 1245   5.305   3.322   4.512 -0.5531 -0.2640  0.0922
   39RA      C8 1246   5.352   3.388   4.625 -0.0424  0.7241  0.6264
   39RA      H8 1247   5.296   3.401   4.716  0.6280  2.3112  0.8451
   39RA      N7 1248   5.473   3.433   4.614  0.2527 -0.2292 -0.5486
   39RA      C5 1249   5.503   3.408   4.481  0.1812  0.0798  0.2028
   39RA      C6 1250   5.615   3.435   4.400  0.1689  0.1636 -0.0360
   39RA      N6 1251   5.727   3.497   4.432 -0.5216  0.0763 -0.2668
   39RA     H61 1252   5.739   3.546   4.519  1.0877 -1.6960  0.5986
   39RA     H62 1253   5.801   3.509   4.364  0.5072 -0.3371  0.7460
   39RA      N1 1254   5.623   3.399   4.276  0.1734 -0.4589  0.1174
   39RA      C2 1255   5.518   3.331   4.225  0.4563 -0.2227 -0.0461
   39RA      H2 1256   5.535   3.302   4.122 -0.2542  0.3152 -0.3259
   39RA      N3 1257   5.399   3.301   4.282 -0.5290 -0.2038  0.2032
   39RA      C4 1258   5.401   3.345   4.411  0.1322 -0.5747 -0.4168
   39RA     C3' 1259   5.190   3.037   4.552  0.0061  0.2193 -0.0669
   39RA     H3' 1260   5.297   3.040   4.571  0.0541  0.8435 -0.4290
   39RA     C2' 1261   5.177   3.128   4.431 -0.1127 -0.0994 -0.5128
   39RA    H2'1 1262   5.255   3.112   4.356  1.7455 -0.8853  1.5120
   39RA     O2' 1263   5.052   3.106   4.376 -0.2354 -0.4276 -0.0607
   39RA    HO'2 1264   5.016   3.019   4.396  2.0260 -1.5736 -0.5888
   39RA     O3' 1265   5.133   2.907   4.540  0.2466  0.4691  0.4759
   40RC       P 1266   5.221   2.777   4.553 -0.2118 -0.1262 -0.0991
   40RC     O1P 1267   5.137   2.668   4.498 -0.5134  0.7092 -0.4398
   40RC     O2P 1268   5.295   2.768   4.681 -0.0351 -0.4375  0.1162
   40RC     O5' 1269   5.334   2.814   4.438  0.2394  0.3634 -0.5753
   40RC     C5' 1270   5.292   2.827   4.298 -0.6651 -1.0801 -0.2011
   40RC    H5'1 1271   5.208   2.895   4.285 -2.1455 -2.7844  0.0592
   40RC    H5'2 1272   5.259   2.726   4.271 -1.7104 -1.2434  1.5576
   40RC     C4' 1273   5.423   2.859   4.213 -0.4149 -0.2097  0.2063
   40RC     H4' 1274   5.402   2.858   4.106 -0.5561  0.4944  0.2279
   40RC     O4' 1275   5.471   2.981   4.260  0.0426  0.4399  0.1268
   40RC     C1' 1276   5.603   2.994   4.222 -0.2927  0.0147 -0.7928
   40RC     H1' 1277   5.617   3.048   4.129 -0.3804 -0.0423 -0.8395
   40RC      N1 1278   5.690   3.047   4.333  0.1212 -0.2935 -0.6674
   40RC      C6 1279   5.626   3.086   4.448 -0.2569  0.7591  0.0284
   40RC      H6 1280   5.531   3.043   4.477 -0.1650  1.2883  1.1713
   40RC      C5 1281   5.697   3.155   4.546  0.3687  0.3385  0.0334
   40RC      H5 1282   5.649   3.164   4.642 -0.1938 -0.8526 -0.1165
   40RC      C4 1283   5.836   3.183   4.516  0.0126  0.6363 -0.2917
   40RC      N4 1284   5.896   3.267   4.596 -0.2574 -0.3703 -0.5185
   40RC     H41 1285   5.850   3.290   4.683  1.8651 -1.1057  0.8751
   40RC     H42 1286   5.992   3.283   4.568  0.4928 -2.5287  0.5734
   40RC      N3 1287   5.896   3.164   4.402 -0.7231  0.2430  0.0320
   40RC      C2 1288   5.821   3.096   4.305  0.3171  0.4087 -0.5826
   40RC      O2 1289   5.864   3.079   4.191 -0.7596 -0.5254  0.1668
   40RC     C3' 1290   5.536   2.760   4.234  0.0039  0.1594  0.3688
   40RC     H3' 1291   5.555   2.746   4.340 -2.3869  1.0070  0.9566
   40RC     C2' 1292   5.649   2.851   4.193  0.6564 -0.2397 -1.4495
   40RC    H2'1 1293   5.739   2.827   4.250 -1.2883 -1.3064  1.3922
   40RC     O2' 1294   5.667   2.837   4.051 -0.5432  0.1956 -0.4309
   40RC    HO'2 1295   5.643   2.750   4.019  1.2425 -1.0463  1.3138
   40RC     O3' 1296   5.526   2.632   4.167  0.0333 -0.9237  0.7955
   41RG       P 1297   5.580   2.499   4.245  0.0411 -0.4435 -0.0052
   41RG     O1P 1298   5.523   2.384   4.172  0.1235 -0.0165  0.8696
   41RG     O2P 1299   5.557   2.508   4.391  0.1723 -0.5288 -0.3187
   41RG     O5' 1300   5.737   2.491   4.242 -0.1366 -0.9070  0.5077
   41RG     C5' 1301   5.804   2.492   4.118 -0.2613  0.3575 -0.1903
   41RG    H5'1 1302   5.751   2.560   4.051 -0.4549  0.0637 -0.3394
   41RG    H5'2 1303   5.793   2.390   4.081  1.5435  0.3194 -0.7261
   41RG     C4' 1304   5.952   2.532   4.111  0.9956 -0.1176 -0.2217
   41RG     H4' 1305   5.977   2.523   4.005 -0.6691  3.2304 -1.0334
   41RG     O4' 1306   5.965   2.676   4.138  0.4030 -0.7562 -0.1407
   41RG     C1' 1307   6.076   2.707   4.227 -0.3594 -0.3769  0.5603
   41RG     H1' 1308   6.144   2.779   4.182  1.0199 -0.3546  2.5711
   41RG      N9 1309   6.024   2.743   4.358  0.0954 -0.2338 -0.0040
   41RG      C8 1310   5.918   2.704   4.434 -0.1698 -0.2789  0.2515
   41RG      H8 1311   5.859   2.619   4.403 -0.1677  0.0490 -0.6981
   41RG      N7 1312   5.894   2.777   4.536  0.0947 -0.1657  0.2756
   41RG      C5 1313   6.001   2.864   4.532  0.6870 -0.2885 -0.4383
   41RG      C6 1314   6.036   2.959   4.636  0.2628  0.0079 -0.2146
   41RG      O6 1315   5.977   2.989   4.743 -0.2839  0.3042  0.0314
   41RG      N1 1316   6.148   3.032   4.600 -1.0267 -0.4636  0.1048
   41RG      H1 1317   6.167   3.113   4.656 -0.8333  0.2754 -0.9898
   41RG      C2 1318   6.226   3.002   4.491 -0.3503 -0.2835  0.0713
   41RG      N2 1319   6.331   3.081   4.477  1.0950 -0.0135 -0.1773
   41RG     H21 1320   6.323   3.166   4.531  1.0612  0.4044 -0.8174
   41RG     H22 1321   6.399   3.062   4.404 -0.4117 -0.6572 -1.4556
   41RG      N3 1322   6.202   2.908   4.408  0.0730  0.0500  0.2310
   41RG      C4 1323   6.084   2.839   4.433 -0.5214  0.4869  0.5116
   41RG     C3' 1324   6.059   2.459   4.203  0.1166  0.0437 -0.3864
   41RG     H3' 1325   6.014   2.432   4.299 -0.4580 -0.5408 -0.8187
   41RG     C2' 1326   6.158   2.575   4.222  0.3502  0.0532  0.1805
   41RG    H2'1 1327   6.215   2.561   4.314  0.8358 -1.1439 -0.2866
   41RG     O2' 1328   6.240   2.574   4.103  0.1321 -0.6030  0.1918
   41RG    HO'2 1329   6.229   2.489   4.060 -1.3397 -0.1085 -0.4676
   41RG     O3' 1330   6.114   2.356   4.136  0.0758 -0.1349  0.4193
   42RA3      P 1331   6.163   2.232   4.211 -0.5362 -0.1482 -0.0377
   42RA3    O1P 1332   6.257   2.271   4.316  0.2916  0.0841 -0.2068
   42RA3    O2P 1333   6.210   2.128   4.115 -0.1113  0.0515 -0.4447
   42RA3    O5' 1334   6.029   2.187   4.280  0.1787 -0.3569 -0.3746
   42RA3    C5' 1335   6.000   2.048   4.308 -0.3712  0.9185 -0.3621
   42RA3   H5'1 1336   6.092   2.005   4.348 -0.6889  0.5334 -0.0348
   42RA3   H5'2 1337   5.967   1.992   4.222  1.1637 -1.1150  0.2861
   42RA3    C4' 1338   5.890   2.027   4.419  0.1253  0.9199  0.0535
   42RA3    H4' 1339   5.886   1.918   4.424  2.0010  0.8611  2.0793
   42RA3    O4' 1340   5.928   2.090   4.545 -0.3631 -0.3636  0.2957
   42RA3    C1' 1341   5.844   2.201   4.574  0.4328 -0.4701  1.1017
   42RA3    H1' 1342   5.777   2.164   4.651 -1.2677 -2.6848 -1.2663
   42RA3     N9 1343   5.933   2.309   4.615  0.1558  0.1055 -0.2299
   42RA3     C8 1344   6.061   2.344   4.565 -0.1463 -0.6628 -0.1279
   42RA3     H8 1345   6.111   2.296   4.482  0.0637  0.9134 -0.9689
   42RA3     N7 1346   6.110   2.454   4.619  0.2465  0.0069 -0.2502
   42RA3     C5 1347   6.017   2.478   4.721 -0.2621  0.0375 -0.6415
   42RA3     C6 1348   6.003   2.577   4.825 -0.9572  0.5344 -0.3639
   42RA3     N6 1349   6.092   2.662   4.869  0.2161 -0.4943  0.1219
   42RA3    H61 1350   6.166   2.679   4.803 -0.4476  0.4379 -0.4088
   42RA3    H62 1351   6.077   2.726   4.945  3.0461  2.2347 -1.4331
   42RA3     N1 1352   5.903   2.565   4.916  0.9461  1.4035 -0.5462
   42RA3     C2 1353   5.808   2.471   4.901  0.0989  0.3536  0.2471
   42RA3     H2 1354   5.731   2.462   4.976 -0.3940  0.8373 -0.1891
   42RA3     N3 1355   5.810   2.384   4.803  0.9164 -0.0482  0.3074
   42RA3     C4 1356   5.912   2.392   4.716 -0.5383  0.2944  0.7446
   42RA3    C3' 1357   5.762   2.086   4.367 -0.0760 -0.6054 -0.6573
   42RA3    H3' 1358   5.764   2.100   4.259 -1.6629 -1.9190 -0.8903
   42RA3    C2' 1359   5.766   2.221   4.443  0.0849 -0.5688  0.1247
   42RA3   H2'1 1360   5.824   2.293   4.386  1.4930 -1.5976  0.2047
   42RA3    O2' 1361   5.635   2.259   4.474 -0.3899  0.0052  0.1400
   42RA3   HO'2 1362   5.617   2.348   4.441 -0.4843  0.2765  0.9016
   42RA3    O3' 1363   5.650   2.002   4.404 -0.1839  0.1433 -0.0421
   42RA3    H3T 1364   5.569   2.034   4.364 -0.9011 -1.9603 -0.4200
   43RU5    O5' 1365   7.313   3.858   5.167  0.2751 -0.3433  0.5227
   43RU5    H5T 1366   7.297   3.764   5.163  0.6474 -0.3934  0.0678
   43RU5    C5' 1367   7.269   3.923   5.042  0.4527 -0.2249 -0.6667
   43RU5   H5'1 1368   7.321   3.871   4.962 -0.3396 -1.3687 -0.4694
   43RU5   H5'2 1369   7.295   4.029   5.045  0.0455 -0.0886 -1.6279
   43RU5    C4' 1370   7.120   3.916   5.006 -0.5668  0.7643  0.3768
   43RU5    H4' 1371   7.105   3.811   4.981  2.8360 -0.0771  1.2821
   43RU5    O4' 1372   7.034   3.935   5.122  0.2202  0.3627 -0.0142
   43RU5    C1' 1373   6.920   4.009   5.084 -0.6333 -0.5548 -0.6775
   43RU5    H1' 1374   6.835   3.949   5.116 -2.4468  1.7224 -0.9879
   43RU5     N1 1375   6.915   4.136   5.163 -0.1474  0.0098  0.1109
   43RU5     C6 1376   7.025   4.222   5.171  0.5990 -0.6662  0.6351
   43RU5     H6 1377   7.115   4.192   5.120  0.2628 -0.5646 -0.0229
   43RU5     C5 1378   7.011   4.345   5.236  0.3004  0.6690  0.3174
   43RU5     H5 1379   7.094   4.413   5.249  0.9500  0.3542 -1.7653
   43RU5     C4 1380   6.884   4.387   5.283 -0.3091 -0.0569  0.2871
   43RU5     O4 1381   6.860   4.499   5.326  0.1648 -0.2644 -0.3845
   43RU5     N3 1382   6.786   4.292   5.289  0.1143  0.0302  0.4178
   43RU5     H3 1383   6.692   4.314   5.316  1.1737  1.3065  3.4787
   43RU5     C2 1384   6.794   4.169   5.229  0.2064 -0.9325 -0.0506
   43RU5     O2 1385   6.698   4.094   5.235  0.4675  0.1116 -0.3658
   43RU5    C3' 1386   7.070   4.005   4.895  0.3025  0.4569  0.5927
   43RU5    H3' 1387   7.126   4.098   4.901  0.0498  0.5224  2.3770
   43RU5    C2' 1388   6.923   4.020   4.927 -0.8033 -0.2200 -0.3672
   43RU5   H2'1 1389   6.894   4.122   4.902  0.8927  0.3051 -0.3066
   43RU5    O2' 1390   6.839   3.915   4.881 -0.2469 -0.5841 -0.5065
   43RU5   HO'2 1391   6.838   3.917   4.785  0.9550 -1.4509 -0.5685
   43RU5    O3' 1392   7.084   3.957   4.759 -0.0774 -0.4869 -0.5132
   44RC       P 1393   7.044   4.039   4.630 -0.0710 -0.0927  0.1005
   44RC     O1P 1394   7.132   3.995   4.515 -0.6354 -0.1995 -0.2704
   44RC     O2P 1395   7.044   4.182   4.655  0.4672 -0.1986  0.5924
   44RC     O5' 1396   6.895   3.984   4.605 -0.8082  0.1175  0.0289
   44RC     C5' 1397   6.868   3.859   4.540 -0.3432 -0.3727 -0.0150
   44RC    H5'1 1398   6.927   3.780   4.588 -1.1819 -0.6359  0.6009
   44RC    H5'2 1399   6.907   3.869   4.439 -0.1851 -1.2501 -0.0554
   44RC     C4' 1400   6.717   3.827   4.533  0.2805 -0.3423 -0.0172
   44RC     H4' 1401   6.702   3.721   4.514 -3.4944 -0.2249  1.5245
   44RC     O4' 1402   6.661   3.856   4.665  0.1887 -0.0125 -0.0038
   44RC     C1' 1403   6.544   3.940   4.663  1.1569 -0.5719  0.6959
   44RC     H1' 1404   6.465   3.877   4.704 -0.0381  0.9760  0.8374
   44RC      N1 1405   6.560   4.057   4.760  0.3815 -0.3069 -0.2201
   44RC      C6 1406   6.632   4.171   4.728  0.0265  0.0983  0.5052
   44RC      H6 1407   6.678   4.165   4.631 -1.2089  0.4390 -0.1267
   44RC      C5 1408   6.643   4.275   4.816  0.2796 -0.7236 -0.4805
   44RC      H5 1409   6.700   4.366   4.802 -1.0456  0.4191  1.1370
   44RC      C4 1410   6.570   4.255   4.943 -0.2896  0.1854  1.1207
   44RC      N4 1411   6.577   4.351   5.032 -0.5501 -0.5481 -0.7089
   44RC     H41 1412   6.542   4.321   5.122  0.7088 -1.5969 -0.5479
   44RC     H42 1413   6.615   4.440   5.003 -2.0287  0.4557  0.3028
   44RC      N3 1414   6.509   4.149   4.979  0.1497 -0.3255  0.6615
   44RC      C2 1415   6.498   4.050   4.886  0.6264 -0.6590 -0.5923
   44RC      O2 1416   6.431   3.955   4.922 -0.0190 -0.3621  0.8032
   44RC     C3' 1417   6.634   3.923   4.433  0.1849  0.5397 -0.0183
   44RC     H3' 1418   6.697   4.007   4.405  1.2463 -0.6321 -1.2856
   44RC     C2' 1419   6.511   3.964   4.515  0.4602 -0.3045  0.0345
   44RC    H2'1 1420   6.482   4.068   4.504 -2.7987 -0.8236  2.3209
   44RC     O2' 1421   6.400   3.885   4.481  0.2122 -0.4050 -0.1444
   44RC    HO'2 1422   6.385   3.905   4.388 -0.0672 -1.3523 -0.3137
   44RC     O3' 1423   6.605   3.860   4.304  0.3779  0.0361  0.3791
   45RG       P 1424   6.525   3.932   4.191  0.3682 -0.1306  0.2240
   45RG     O1P 1425   6.597   4.060   4.166  0.2429 -0.3855 -0.1451
   45RG     O2P 1426   6.384   3.950   4.232 -0.2448 -0.3867  0.1578
   45RG     O5' 1427   6.521   3.836   4.066  0.5159  0.0227  0.4538
   45RG     C5' 1428   6.626   3.818   3.973 -0.4022 -0.1729  0.1053
   45RG    H5'1 1429   6.725   3.828   4.019 -0.3380 -1.1600  0.2214
   45RG    H5'2 1430   6.607   3.898   3.902 -3.6358  1.1515  2.2879
   45RG     C4' 1431   6.611   3.676   3.911 -0.0383  0.1280 -0.5622
   45RG     H4' 1432   6.681   3.673   3.828  0.3217  0.7021 -0.2874
   45RG     O4' 1433   6.650   3.571   3.996  0.0608  0.0908  0.0395
   45RG     C1' 1434   6.553   3.467   3.997 -0.3685 -0.0155 -0.3947
   45RG     H1' 1435   6.580   3.362   4.004 -1.1147 -0.0943  2.4254
   45RG      N9 1436   6.469   3.489   4.118  0.2765  0.1900 -0.0973
   45RG      C8 1437   6.490   3.578   4.220  0.1582 -0.5020  0.3543
   45RG      H8 1438   6.573   3.646   4.214  0.5326 -1.0425 -0.7760
   45RG      N7 1439   6.388   3.577   4.305 -0.3496  0.5361  0.6277
   45RG      C5 1440   6.313   3.463   4.274  0.6440  0.6419  0.2805
   45RG      C6 1441   6.200   3.387   4.333  0.0059  0.0001 -0.7347
   45RG      O6 1442   6.157   3.401   4.450 -0.7157 -0.2555 -0.0913
   45RG      N1 1443   6.141   3.289   4.251 -0.5492 -0.1845  0.5925
   45RG      H1 1444   6.068   3.233   4.293  0.3012 -0.3097  1.9689
   45RG      C2 1445   6.200   3.249   4.137 -0.5138  0.6121  0.5417
   45RG      N2 1446   6.138   3.157   4.073  0.0202 -0.5895 -0.0094
   45RG     H21 1447   6.061   3.106   4.115  0.1771  0.6407  1.9159
   45RG     H22 1448   6.164   3.127   3.980 -0.1385 -0.8297  0.0208
   45RG      N3 1449   6.306   3.309   4.078  0.6007  0.0475 -0.5451
   45RG      C4 1450   6.358   3.417   4.152 -0.1384 -0.2323  0.4865
   45RG     C3' 1451   6.467   3.651   3.856 -0.0260  0.3774 -0.0802
   45RG     H3' 1452   6.397   3.691   3.929 -1.2656  0.2157 -1.1578
   45RG     C2' 1453   6.477   3.495   3.862 -0.2991  0.3230 -0.4578
   45RG    H2'1 1454   6.375   3.458   3.850 -0.1164  0.0749 -1.3216
   45RG     O2' 1455   6.551   3.424   3.760  0.3249 -0.2082  0.3331
   45RG    HO'2 1456   6.535   3.474   3.679  2.9956  0.4346  0.1120
   45RG     O3' 1457   6.460   3.700   3.722  0.4101 -0.0904 -0.1001
   46RU       P 1458   6.322   3.758   3.673 -0.2249  0.2048 -0.0060
   46RU     O1P 1459   6.332   3.818   3.540 -0.5109  0.3124  0.2789
   46RU     O2P 1460   6.271   3.841   3.780  0.0151 -0.1871  0.5029
   46RU     O5' 1461   6.228   3.633   3.670  0.0540  0.0228 -0.4799
   46RU     C5' 1462   6.207   3.561   3.547  0.2545  0.2185  0.1823
   46RU    H5'1 1463   6.296   3.503   3.524 -1.2006 -1.4867 -1.4622
   46RU    H5'2 1464   6.187   3.624   3.461  0.5588 -2.3250 -1.8737
   46RU     C4' 1465   6.087   3.468   3.558  0.1161 -0.0644  0.1555
   46RU     H4' 1466   6.073   3.416   3.463 -1.1323  2.4557 -1.1202
   46RU     O4' 1467   6.097   3.378   3.663 -0.4466  0.0821 -0.7676
   46RU     C1' 1468   5.971   3.365   3.730 -0.1673  0.5870 -0.0913
   46RU     H1' 1469   5.943   3.260   3.741 -1.0333  0.4839 -2.5369
   46RU      N1 1470   5.964   3.418   3.871 -0.3856  0.4832 -0.5862
   46RU      C6 1471   6.069   3.489   3.929 -0.1806  0.0282 -0.0252
   46RU      H6 1472   6.148   3.516   3.861  0.2111 -2.1714 -0.5368
   46RU      C5 1473   6.065   3.541   4.056  0.1800 -0.3021 -0.4155
   46RU      H5 1474   6.147   3.597   4.098  0.3947 -1.9670  1.5340
   46RU      C4 1475   5.946   3.519   4.140  0.4533 -0.7399  0.1115
   46RU      O4 1476   5.927   3.569   4.251  0.0888 -0.4273  0.0545
   46RU      N3 1477   5.853   3.430   4.085  0.2313 -0.0106 -0.3741
   46RU      H3 1478   5.775   3.404   4.143  0.6851  0.8330  0.6577
   46RU      C2 1479   5.855   3.379   3.954 -0.4831 -0.6796  0.5877
   46RU      O2 1480   5.764   3.311   3.918 -0.0097  0.3050 -0.6858
   46RU     C3' 1481   5.953   3.540   3.588 -0.2318  0.0861 -0.3237
   46RU     H3' 1482   5.960   3.627   3.653 -3.8444  1.4496 -1.5162
   46RU     C2' 1483   5.864   3.431   3.644  0.6092  0.3948 -0.0656
   46RU    H2'1 1484   5.776   3.462   3.701  0.7487  0.5842  0.0504
   46RU     O2' 1485   5.821   3.331   3.548 -0.0847  0.4503  0.3614
   46RU    HO'2 1486   5.767   3.263   3.589 -0.2861 -2.3842 -3.9633
   46RU     O3' 1487   5.889   3.593   3.470 -0.3882 -0.5007 -0.0207
   47RG       P 1488   5.794   3.722   3.483 -0.8517 -0.1855  0.3665
   47RG     O1P 1489   5.759   3.761   3.349  0.5672 -0.0215  0.6409
   47RG     O2P 1490   5.873   3.826   3.558  0.1957  0.5103 -0.4825
   47RG     O5' 1491   5.671   3.678   3.559  0.7622 -0.1848 -0.4742
   47RG     C5' 1492   5.561   3.609   3.496  0.3025 -0.3017 -0.2187
   47RG    H5'1 1493   5.594   3.516   3.449  0.5670 -0.3148 -0.0134
   47RG    H5'2 1494   5.512   3.679   3.428 -1.2072  0.0414  1.1450
   47RG     C4' 1495   5.461   3.565   3.607  0.1592  0.2313 -0.0256
   47RG     H4' 1496   5.389   3.497   3.561 -0.3602  0.0682  0.9858
   47RG     O4' 1497   5.513   3.502   3.726  0.2271  0.1933 -0.0380
   47RG     C1' 1498   5.439   3.557   3.838  0.7213 -0.1308 -0.2865
   47RG     H1' 1499   5.404   3.483   3.910 -0.3219  0.8883  0.2947
   47RG      N9 1500   5.524   3.638   3.923 -0.2620  0.1922 -0.5535
   47RG      C8 1501   5.645   3.689   3.891 -0.0127  0.1766 -0.6191
   47RG      H8 1502   5.684   3.682   3.790  1.5791  1.5553 -0.1473
   47RG      N7 1503   5.704   3.752   3.993 -0.2230  0.0320  0.5274
   47RG      C5 1504   5.618   3.727   4.097  0.5219  0.1291  0.3675
   47RG      C6 1505   5.634   3.746   4.239  0.0184 -0.4667  0.4598
   47RG      O6 1506   5.733   3.797   4.292  0.1009 -0.6758 -0.2306
   47RG      N1 1507   5.517   3.721   4.315 -0.1746 -0.4026  0.2216
   47RG      H1 1508   5.513   3.733   4.416 -4.1733 -1.6148  0.3685
   47RG      C2 1509   5.407   3.657   4.257  0.3543 -0.2344 -0.5748
   47RG      N2 1510   5.300   3.663   4.330  0.1544 -0.6362  0.5243
   47RG     H21 1511   5.300   3.674   4.431 -0.0401 -0.5323  0.5134
   47RG     H22 1512   5.213   3.630   4.291 -0.1264  1.1627 -0.4730
   47RG      N3 1513   5.385   3.629   4.127 -0.5978 -0.2942 -0.4236
   47RG      C4 1514   5.499   3.665   4.053 -0.1854 -0.0219  0.3353
   47RG     C3' 1515   5.379   3.684   3.659 -0.9466  0.3508 -0.2968
   47RG     H3' 1516   5.441   3.768   3.688 -1.3265  0.4203  0.3155
   47RG     C2' 1517   5.316   3.639   3.783  0.0971 -0.7509 -0.3207
   47RG    H2'1 1518   5.286   3.726   3.843  0.0361 -0.9447 -0.0659
   47RG     O2' 1519   5.207   3.556   3.767  0.1613 -0.2234  0.1455
   47RG    HO'2 1520   5.165   3.575   3.682  3.9121  1.2378 -1.6017
   47RG     O3' 1521   5.274   3.721   3.566 -0.2854 -0.3307  0.2930
   48RG       P 1522   5.272   3.875   3.510  0.1167  0.0201 -0.1977
   48RG     O1P 1523   5.188   3.870   3.387  0.3933  0.3013 -0.2301
   48RG     O2P 1524   5.408   3.929   3.506 -0.0767 -0.3371  0.6457
   48RG     O5' 1525   5.186   3.946   3.621  0.2048 -0.1142 -0.7197
   48RG     C5' 1526   5.055   3.916   3.653 -0.0181  0.6280  0.1164
   48RG    H5'1 1527   5.038   3.809   3.651 -0.6101  0.7215 -0.7004
   48RG    H5'2 1528   4.983   3.967   3.589 -1.0240 -2.3687 -1.3420
   48RG     C4' 1529   5.028   3.948   3.800  0.2574 -0.5822  0.3149
   48RG     H4' 1530   4.922   3.935   3.822 -0.0182  1.0652  0.1316
   48RG     O4' 1531   5.105   3.878   3.900  0.4484  0.4158 -0.5022
   48RG     C1' 1532   5.147   3.968   4.004  0.2477 -0.6404  0.1156
   48RG     H1' 1533   5.120   3.930   4.102 -0.1137  0.3732  0.4203
   48RG      N9 1534   5.285   4.014   4.006  0.2037  0.3577  0.1247
   48RG      C8 1535   5.367   4.021   3.896  0.6545 -0.4300  0.3442
   48RG      H8 1536   5.341   4.004   3.793  1.2820 -2.0181  0.4286
   48RG      N7 1537   5.487   4.046   3.932  0.0830 -0.5706  0.3263
   48RG      C5 1538   5.482   4.059   4.070  0.2972 -0.3055 -0.0447
   48RG      C6 1539   5.588   4.061   4.163  0.4569  0.1685 -0.2603
   48RG      O6 1540   5.713   4.068   4.147 -0.0699  0.7601 -0.0712
   48RG      N1 1541   5.548   4.071   4.297 -0.8415 -0.0187  1.1528
   48RG      H1 1542   5.621   4.086   4.365  2.6713 -0.8231 -2.0675
   48RG      C2 1543   5.418   4.056   4.329  0.6008  0.0788 -0.0113
   48RG      N2 1544   5.374   4.043   4.455 -0.2600 -0.4441 -0.4987
   48RG     H21 1545   5.440   4.014   4.526  0.2147  1.5742 -0.0388
   48RG     H22 1546   5.279   4.011   4.468 -0.5724  0.9823  1.0751
   48RG      N3 1547   5.318   4.030   4.246 -0.0996  0.3518 -0.4834
   48RG      C4 1548   5.358   4.040   4.117 -0.1588  0.1554  0.8167
   48RG     C3' 1549   5.059   4.100   3.833  0.0731 -0.1057 -0.1512
   48RG     H3' 1550   5.156   4.116   3.786 -0.1919 -0.1604 -0.7283
   48RG     C2' 1551   5.063   4.089   3.987  0.0401 -0.2620  0.0647
   48RG    H2'1 1552   5.096   4.181   4.037 -2.7157  0.9882 -0.2130
   48RG     O2' 1553   4.938   4.047   4.040 -0.6961 -0.4158  0.2983
   48RG    HO'2 1554   4.949   4.052   4.135  3.5134 -0.6341 -0.0190
   48RG     O3' 1555   4.962   4.181   3.774  0.1598 -0.4561  0.8906
   49RU       P 1556   4.994   4.325   3.711  0.2387  0.0831 -0.2379
   49RU     O1P 1557   4.865   4.393   3.683 -0.4032  0.2328 -0.0933
   49RU     O2P 1558   5.092   4.307   3.605 -0.7514 -0.1427  0.0294
   49RU     O5' 1559   5.073   4.397   3.824  0.8127  0.2735  0.6630
   49RU     C5' 1560   5.004   4.434   3.940 -0.7011  0.2397 -0.2852
   49RU    H5'1 1561   4.942   4.354   3.978  2.7344 -1.3576  2.5422
   49RU    H5'2 1562   4.938   4.520   3.928 -1.2575  0.0452  1.2921
   49RU     C4' 1563   5.102   4.469   4.055 -0.0854  1.0062  0.0045
   49RU     H4' 1564   5.047   4.483   4.149 -0.6758 -1.5098  0.1210
   49RU     O4' 1565   5.205   4.363   4.077  0.4046  0.4822 -0.1328
   49RU     C1' 1566   5.322   4.417   4.123 -0.3223 -0.4026  0.2506
   49RU     H1' 1567   5.355   4.377   4.219  1.8257 -0.5917 -0.4999
   49RU      N1 1568   5.443   4.383   4.033 -0.5466 -0.7235 -0.3424
   49RU      C6 1569   5.431   4.370   3.897 -0.0819  0.1229  0.2298
   49RU      H6 1570   5.333   4.379   3.853 -0.6140 -0.4868  1.2402
   49RU      C5 1571   5.532   4.338   3.816 -0.2033 -0.0383 -0.0527
   49RU      H5 1572   5.512   4.320   3.712 -1.3337 -1.3589  0.3682
   49RU      C4 1573   5.661   4.330   3.871 -0.2081 -0.0465 -0.2866
   49RU      O4 1574   5.762   4.290   3.808 -0.5810  0.3064 -0.1044
   49RU      N3 1575   5.679   4.360   4.003  0.3806  0.3192 -0.3278
   49RU      H3 1576   5.769   4.338   4.044 -0.4612 -1.4241  0.6857
   49RU      C2 1577   5.573   4.390   4.090  0.3179 -0.2508  0.6491
   49RU      O2 1578   5.592   4.389   4.212 -0.1296  0.2703 -0.2938
   49RU     C3' 1579   5.192   4.590   4.029  0.4432 -0.4798  0.7771
   49RU     H3' 1580   5.229   4.575   3.928 -2.1593  1.7835 -0.6679
   49RU     C2' 1581   5.295   4.565   4.140  0.1061 -0.4985 -0.0841
   49RU    H2'1 1582   5.386   4.623   4.121 -0.4310  0.5783  0.5540
   49RU     O2' 1583   5.249   4.590   4.272 -0.1523 -0.3604  0.0352
   49RU    HO'2 1584   5.171   4.646   4.268  0.0110 -0.1698 -0.4679
   49RU     O3' 1585   5.139   4.719   4.044  0.4379  0.1926  0.0993
   50RAP      P 1586   5.216   4.841   3.983  0.2216 -0.3299  0.3180
   50RAP    O1P 1587   5.134   4.961   4.005 -0.3871  0.0805  0.6266
   50RAP    O2P 1588   5.254   4.798   3.849 -0.1301 -0.0747  0.7361
   50RAP    O5' 1589   5.351   4.863   4.062 -0.5742 -0.6821  0.5851
   50RAP    C5' 1590   5.357   4.919   4.188  0.0878  1.0132 -0.0443
   50RAP   H5'1 1591   5.303   4.849   4.251 -0.6853  1.2654 -0.4049
   50RAP   H5'2 1592   5.302   5.014   4.184 -1.0337  0.4226  0.6658
   50RAP    C4' 1593   5.503   4.941   4.247 -0.2662  0.6129  0.2281
   50RAP    H4' 1594   5.543   5.034   4.208  0.6886 -0.5496 -1.7516
   50RAP    O4' 1595   5.492   4.945   4.389  0.0623 -0.4879  0.2557
   50RAP    C1' 1596   5.588   4.858   4.458  0.4870 -0.3369 -0.3907
   50RAP    H1' 1597   5.685   4.906   4.464 -0.3199  1.2146  1.5353
   50RAP     N9 1598   5.550   4.818   4.594  0.9921 -0.4261 -0.9240
   50RAP     C8 1599   5.626   4.815   4.709  0.0937 -0.2009  0.3026
   50RAP     H8 1600   5.733   4.829   4.699  0.1513 -1.4327 -1.2064
   50RAP     N7 1601   5.561   4.796   4.814 -0.0277 -0.2642  0.0667
   50RAP     C5 1602   5.428   4.798   4.773  0.4390  0.1347 -0.2701
   50RAP     C6 1603   5.306   4.776   4.839  0.1002 -0.2429 -0.4718
   50RAP     N6 1604   5.303   4.753   4.971  0.0192  0.1960  0.3497
   50RAP    H61 1605   5.391   4.736   5.018 -0.6976  0.1950  1.7120
   50RAP    H62 1606   5.220   4.741   5.027 -1.1196 -2.8121 -1.7460
   50RAP     N1 1607   5.186   4.792   4.771 -0.4230  0.4540  0.5483
   50RAP     H1 1608   5.107   4.843   4.809 -0.0402  0.4755  1.3223
   50RAP     C2 1609   5.199   4.769   4.641 -0.2632  0.1191  0.4357
   50RAP     H2 1610   5.112   4.729   4.590  0.3130  1.3846 -1.6826
   50RAP     N3 1611   5.308   4.784   4.560 -0.4381  0.5414  0.1557
   50RAP     C4 1612   5.420   4.805   4.636  0.2849  0.3048 -1.1294
   50RAP    C3' 1613   5.603   4.819   4.227 -0.0639  0.8371 -0.2337
   50RAP    H3' 1614   5.569   4.753   4.147 -0.3477  0.1688  0.4196
   50RAP    C2' 1615   5.595   4.742   4.357  0.2049 -0.4869 -0.5701
   50RAP   H2'1 1616   5.500   4.689   4.363  0.4034 -0.6569  2.7169
   50RAP    O2' 1617   5.699   4.645   4.378 -0.1788 -0.3128 -0.1824
   50RAP   HO'2 1618   5.664   4.562   4.411  0.2275 -0.5644 -0.3763
   50RAP    O3' 1619   5.735   4.870   4.208  0.2708  0.1474 -0.3312
   51RC       P 1620   5.779   4.934   4.069  0.2464  0.3735 -0.1126
   51RC     O1P 1621   5.696   4.871   3.966  0.2712 -0.0287  0.5147
   51RC     O2P 1622   5.923   4.918   4.055  0.0889  0.2164 -0.4930
   51RC     O5' 1623   5.745   5.093   4.069  0.2749 -0.7691  0.1286
   51RC     C5' 1624   5.786   5.175   4.181  0.4144  0.2069 -0.0261
   51RC    H5'1 1625   5.894   5.172   4.192  0.4832  0.9514 -0.4503
   51RC    H5'2 1626   5.739   5.147   4.275  0.0609 -0.5119 -0.4034
   51RC     C4' 1627   5.746   5.318   4.149  0.2859 -1.1085  0.1888
   51RC     H4' 1628   5.772   5.378   4.237 -0.7850  3.2354 -2.1749
   51RC     O4' 1629   5.822   5.357   4.036 -0.1118 -0.5200  0.0964
   51RC     C1' 1630   5.738   5.412   3.940  0.5451  0.3184  0.4358
   51RC     H1' 1631   5.738   5.519   3.958 -0.1768  0.7593 -1.8128
   51RC      N1 1632   5.791   5.382   3.807 -0.7394  0.0785  0.0025
   51RC      C6 1633   5.786   5.255   3.755  0.0280 -0.4653  0.4617
   51RC      H6 1634   5.756   5.171   3.816 -0.4948 -1.0807 -0.6203
   51RC      C5 1635   5.815   5.231   3.624  0.0591  0.5756  0.1400
   51RC      H5 1636   5.803   5.136   3.574 -2.6473  1.7343 -1.6481
   51RC      C4 1637   5.863   5.345   3.548  0.6779  0.6088  0.2574
   51RC      N4 1638   5.901   5.330   3.422 -0.3274 -0.1348  0.0086
   51RC     H41 1639   5.931   5.239   3.390  0.9662 -0.0676  0.9667
   51RC     H42 1640   5.927   5.419   3.382 -2.1534  0.7801  0.7046
   51RC      N3 1641   5.871   5.470   3.594  0.0373 -0.0116 -0.7418
   51RC      C2 1642   5.839   5.483   3.725 -0.6855  0.2660 -0.5317
   51RC      O2 1643   5.859   5.595   3.775 -0.0679 -0.7547  0.2871
   51RC     C3' 1644   5.601   5.349   4.119 -0.4508 -0.9285  0.7395
   51RC     H3' 1645   5.537   5.275   4.169 -2.0863 -1.1751 -1.5739
   51RC     C2' 1646   5.598   5.353   3.967  0.1555 -0.2362  0.1727
   51RC    H2'1 1647   5.584   5.251   3.931 -1.9773 -0.1644  0.6527
   51RC     O2' 1648   5.492   5.423   3.900 -0.3936  0.1903 -0.1511
   51RC    HO'2 1649   5.413   5.416   3.954  0.1378 -0.0752  0.6188
   51RC     O3' 1650   5.576   5.481   4.176  0.0435 -0.2744 -0.4345
   52RA       P 1651   5.433   5.533   4.215 -0.1326  0.2617 -0.2305
   52RA     O1P 1652   5.351   5.539   4.097  0.2390  0.2500 -0.2517
   52RA     O2P 1653   5.463   5.662   4.282  0.4087 -0.3828 -0.3237
   52RA     O5' 1654   5.390   5.427   4.321 -0.1338  0.2451  0.5892
   52RA     C5' 1655   5.271   5.349   4.282  0.9877 -0.3057 -0.2425
   52RA    H5'1 1656   5.292   5.275   4.205  2.1875 -0.6380  0.3643
   52RA    H5'2 1657   5.190   5.416   4.253 -0.3789 -1.8661 -0.1383
   52RA     C4' 1658   5.229   5.262   4.398 -0.0683 -0.1706  0.1895
   52RA     H4' 1659   5.139   5.205   4.380  0.3230 -1.0922  1.0785
   52RA     O4' 1660   5.334   5.162   4.419 -0.5515 -0.3154 -0.0887
   52RA     C1' 1661   5.368   5.156   4.562 -0.0708  0.0769  0.3415
   52RA     H1' 1662   5.352   5.052   4.591 -0.9987  0.4711  1.3075
   52RA      N9 1663   5.512   5.196   4.575  0.6682 -0.1834  0.1018
   52RA      C8 1664   5.601   5.225   4.472 -0.1832  0.6079  0.1476
   52RA      H8 1665   5.563   5.242   4.373 -0.4416  0.4727  0.2235
   52RA      N7 1666   5.728   5.233   4.510 -0.2441 -0.0814  0.3775
   52RA      C5 1667   5.723   5.199   4.647 -0.1605 -0.4298 -0.0552
   52RA      C6 1668   5.818   5.184   4.747  0.3240 -0.1741 -0.3649
   52RA      N6 1669   5.951   5.189   4.733  0.1551  0.0117 -1.0308
   52RA     H61 1670   5.996   5.209   4.645  2.8320  0.5794  0.3664
   52RA     H62 1671   6.008   5.184   4.817  1.0732  2.4509 -1.4178
   52RA      N1 1672   5.779   5.136   4.864 -0.4664  0.0499  0.3622
   52RA      C2 1673   5.655   5.117   4.890 -0.0579  0.7526 -0.3618
   52RA      H2 1674   5.634   5.072   4.986  0.3343  0.2113 -0.5273
   52RA      N3 1675   5.550   5.133   4.810  0.1365  0.1059  0.2835
   52RA      C4 1676   5.592   5.181   4.687 -0.6507 -0.3732  0.1132
   52RA     C3' 1677   5.206   5.330   4.530 -0.0842 -0.4677  0.5041
   52RA     H3' 1678   5.261   5.424   4.521 -0.7224 -0.2535 -1.6235
   52RA     C2' 1679   5.271   5.242   4.635 -0.5272  0.3711 -0.1903
   52RA    H2'1 1680   5.316   5.310   4.708 -0.7447  1.3440 -0.9350
   52RA     O2' 1681   5.197   5.143   4.700  0.2590 -0.0395 -0.3574
   52RA    HO'2 1682   5.219   5.134   4.793 -0.9716  0.2915 -0.0082
   52RA     O3' 1683   5.074   5.363   4.571  0.9952 -0.1203  0.2832
   53RU       P 1684   5.039   5.501   4.643 -0.1061 -0.4812 -0.3121
   53RU     O1P 1685   4.897   5.497   4.693  0.3990 -0.5355 -0.1583
   53RU     O2P 1686   5.067   5.607   4.548 -0.3104  0.3982  0.2056
   53RU     O5' 1687   5.135   5.524   4.762 -0.1390  0.1376 -0.7812
   53RU     C5' 1688   5.091   5.492   4.895 -0.3487  0.2481 -0.2299
   53RU    H5'1 1689   5.051   5.391   4.894  0.0726  0.0340  1.4974
   53RU    H5'2 1690   5.013   5.561   4.925 -0.5902  0.8931 -2.1942
   53RU     C4' 1691   5.204   5.492   5.006  0.1007 -0.3190  0.7247
   53RU     H4' 1692   5.166   5.442   5.095 -2.6048  0.5889  0.1817
   53RU     O4' 1693   5.327   5.426   4.970 -0.1386 -0.0800 -0.4464
   53RU     C1' 1694   5.437   5.517   4.987  0.0291  0.0989 -0.0928
   53RU     H1' 1695   5.470   5.513   5.091  1.3358  1.9512 -0.4061
   53RU      N1 1696   5.550   5.490   4.893 -0.2011 -0.5045  0.2200
   53RU      C6 1697   5.516   5.496   4.755 -0.0480 -0.1778 -0.4355
   53RU      H6 1698   5.411   5.501   4.728  0.0443  4.3074 -0.6071
   53RU      C5 1699   5.609   5.502   4.655 -0.1041  0.3050 -0.0101
   53RU      H5 1700   5.587   5.515   4.550 -0.1259  1.3649  0.1109
   53RU      C4 1701   5.746   5.501   4.692  0.7653 -0.7016 -0.1196
   53RU      O4 1702   5.841   5.506   4.612  0.4070 -0.5355 -0.1451
   53RU      N3 1703   5.774   5.475   4.824 -0.6898 -0.5971  0.0488
   53RU      H3 1704   5.872   5.464   4.847 -0.8512  0.4571  1.3319
   53RU      C2 1705   5.689   5.491   4.928  0.4799  0.4837 -0.2432
   53RU      O2 1706   5.724   5.508   5.046 -0.0148  0.2467 -0.0246
   53RU     C3' 1707   5.244   5.638   5.034  0.4337 -0.3246 -0.1584
   53RU     H3' 1708   5.167   5.709   5.004  0.0739 -0.6689 -0.0483
   53RU     C2' 1709   5.377   5.657   4.951  0.2268  1.1696 -0.5649
   53RU    H2'1 1710   5.347   5.673   4.847 -0.3858  0.8031 -0.4442
   53RU     O2' 1711   5.462   5.759   4.996 -0.1492 -0.3808  0.1993
   53RU    HO'2 1712   5.448   5.779   5.088  0.5203 -1.5189  0.5710
   53RU     O3' 1713   5.277   5.646   5.175 -0.3889  0.0935  0.1879
   54RU       P 1714   5.239   5.774   5.264  0.0585  0.2278  0.2378
   54RU     O1P 1715   5.091   5.797   5.264  0.1626  0.3212 -0.2674
   54RU     O2P 1716   5.328   5.880   5.218  0.5878  0.0698  0.1347
   54RU     O5' 1717   5.298   5.713   5.397  0.1137 -0.3269  0.0975
   54RU     C5' 1718   5.352   5.790   5.503  0.1298  0.1678 -1.1395
   54RU    H5'1 1719   5.324   5.751   5.601 -3.8837  0.9035 -1.8222
   54RU    H5'2 1720   5.314   5.893   5.504  2.2255  0.9923 -0.2524
   54RU     C4' 1721   5.501   5.808   5.515  0.4480  0.0707  0.3801
   54RU     H4' 1722   5.520   5.865   5.606 -2.7761 -1.7065  2.3594
   54RU     O4' 1723   5.567   5.691   5.535 -0.1565  0.2444 -0.5599
   54RU     C1' 1724   5.647   5.657   5.423  0.1246  0.3156  0.3211
   54RU     H1' 1725   5.746   5.689   5.457  0.3302 -0.0412  0.0570
   54RU      N1 1726   5.645   5.514   5.387 -0.4131  0.1868  0.2481
   54RU      C6 1727   5.532   5.446   5.351 -0.1512  0.4655 -0.0306
   54RU      H6 1728   5.441   5.502   5.334  0.4672  1.0851 -1.3512
   54RU      C5 1729   5.532   5.310   5.336  0.3797 -0.5907  0.3464
   54RU      H5 1730   5.436   5.265   5.318  0.5563 -0.8434  0.0304
   54RU      C4 1731   5.651   5.239   5.355  0.0523  0.7315  0.4089
   54RU      O4 1732   5.657   5.123   5.341  0.2627  0.0777  0.2488
   54RU      N3 1733   5.761   5.312   5.379  0.2385  0.0972 -0.0289
   54RU      H3 1734   5.848   5.260   5.388  0.2631 -0.2013 -1.7994
   54RU      C2 1735   5.770   5.445   5.407 -0.3533  0.0289 -0.3731
   54RU      O2 1736   5.875   5.496   5.441 -0.2792 -0.3485 -0.1431
   54RU     C3' 1737   5.576   5.870   5.398 -0.1581 -0.0138  0.3326
   54RU     H3' 1738   5.514   5.941   5.343 -1.8705 -1.8123 -0.1613
   54RU     C2' 1739   5.610   5.750   5.312  0.2850 -0.5146 -0.1479
   54RU    H2'1 1740   5.520   5.714   5.262 -0.0764 -0.3925  0.4043
   54RU     O2' 1741   5.715   5.767   5.211  0.3019  0.4120 -0.0931
   54RU    HO'2 1742   5.754   5.853   5.229  0.1274  0.2506  1.0705
   54RU     O3' 1743   5.688   5.934   5.456 -0.1081 -0.4799  0.2806
   55RA       P 1744   5.772   6.047   5.384 -0.1217 -0.6389  0.0840
   55RA     O1P 1745   5.733   6.175   5.454  0.4555  0.7488  0.1455
   55RA     O2P 1746   5.760   6.037   5.236 -0.0567  0.1218  0.2176
   55RA     O5' 1747   5.929   6.019   5.423  0.6117  0.1727 -0.0705
   55RA     C5' 1748   5.980   6.035   5.552 -0.1732 -0.2889 -0.0250
   55RA    H5'1 1749   5.908   5.992   5.622 -0.1353  0.7059  0.6343
   55RA    H5'2 1750   5.982   6.140   5.580 -2.2551 -0.2148  0.0112
   55RA     C4' 1751   6.116   5.969   5.573  0.0884 -0.1946 -0.1715
   55RA     H4' 1752   6.143   5.959   5.678  1.9844 -2.6962 -0.7837
   55RA     O4' 1753   6.125   5.837   5.511 -0.6757  0.5718 -0.3924
   55RA     C1' 1754   6.240   5.822   5.429 -0.0614 -0.5120  0.2675
   55RA     H1' 1755   6.288   5.724   5.432 -1.6179 -1.5092 -3.1030
   55RA      N9 1756   6.186   5.833   5.289 -0.4065  0.6121  0.1943
   55RA      C8 1757   6.064   5.812   5.233 -0.0458  0.1927 -0.8572
   55RA      H8 1758   5.974   5.783   5.285 -1.3964  1.6946 -2.2437
   55RA      N7 1759   6.054   5.823   5.106  0.2957 -0.7129  0.3092
   55RA      C5 1760   6.181   5.843   5.066 -0.3744  0.3633 -0.8081
   55RA      C6 1761   6.249   5.850   4.940  0.2545 -0.2770 -0.0305
   55RA      N6 1762   6.179   5.859   4.830  0.5902 -0.5974  0.2129
   55RA     H61 1763   6.080   5.876   4.839  0.1107 -1.7109 -2.2932
   55RA     H62 1764   6.223   5.855   4.739 -0.8670 -1.5307 -0.4880
   55RA      N1 1765   6.383   5.849   4.934  0.1487 -0.1445 -0.6229
   55RA      C2 1766   6.452   5.839   5.048  0.0315 -0.2897  0.1095
   55RA      H2 1767   6.560   5.839   5.042  0.2123 -1.1252  2.2971
   55RA      N3 1768   6.405   5.827   5.173  0.3603  0.2081  0.4540
   55RA      C4 1769   6.268   5.835   5.175  0.0247 -0.0337  0.0611
   55RA     C3' 1770   6.231   6.045   5.516 -0.2281 -0.1196  0.2131
   55RA     H3' 1771   6.192   6.084   5.422  0.2212  0.0235  0.0832
   55RA     C2' 1772   6.332   5.934   5.479  0.1637  0.0603  0.3615
   55RA    H2'1 1773   6.402   5.955   5.398  0.9338 -2.0567  0.3922
   55RA     O2' 1774   6.406   5.884   5.586 -1.1884  0.2360 -0.1054
   55RA    HO'2 1775   6.470   5.953   5.606 -0.2665 -0.8249  0.7858
   55RA     O3' 1776   6.277   6.152   5.603  0.5598 -0.3971 -0.6978
   56RC       P 1777   6.416   6.221   5.600 -0.0121  0.1127 -0.2308
   56RC     O1P 1778   6.504   6.113   5.641  0.1718  0.0271  0.1294
   56RC     O2P 1779   6.397   6.339   5.684 -0.2648 -0.3344 -0.6440
   56RC     O5' 1780   6.439   6.270   5.447 -0.0965  0.5373 -0.0282
   56RC     C5' 1781   6.567   6.278   5.389  0.2558  0.3469  0.1539
   56RC    H5'1 1782   6.622   6.186   5.409 -1.2081 -0.3046  1.3783
   56RC    H5'2 1783   6.624   6.353   5.445 -1.8302  0.4388  2.3030
   56RC     C4' 1784   6.563   6.299   5.233  0.1368 -0.2735 -0.3441
   56RC     H4' 1785   6.665   6.316   5.198  0.4688 -0.9222  0.2881
   56RC     O4' 1786   6.505   6.190   5.168 -0.2459 -0.5532 -0.2171
   56RC     C1' 1787   6.442   6.244   5.047 -0.1491 -0.4897 -0.4990
   56RC     H1' 1788   6.491   6.190   4.966  0.6183  0.8521 -0.9710
   56RC      N1 1789   6.296   6.225   5.050 -1.1072  0.6666  0.0499
   56RC      C6 1790   6.229   6.191   5.165 -0.1532 -0.3223  0.5542
   56RC      H6 1791   6.277   6.198   5.262 -0.1193  0.5980  0.4764
   56RC      C5 1792   6.099   6.154   5.151  0.2237  0.0293  0.4263
   56RC      H5 1793   6.050   6.134   5.245  0.8966 -1.1164  0.5518
   56RC      C4 1794   6.040   6.143   5.018  0.0204  0.0278 -0.3493
   56RC      N4 1795   5.921   6.090   5.005  0.0103 -0.1115  0.1601
   56RC     H41 1796   5.882   6.031   5.077 -2.1470  0.0996 -0.7546
   56RC     H42 1797   5.884   6.082   4.911  0.2426 -0.2024  0.0769
   56RC      N3 1798   6.109   6.181   4.913 -0.4749 -0.1374  0.5507
   56RC      C2 1799   6.232   6.221   4.922 -0.3070 -0.9190 -0.5414
   56RC      O2 1800   6.290   6.266   4.818 -0.1843  0.3978  0.2884
   56RC     C3' 1801   6.489   6.424   5.190 -0.7552 -0.5126  0.0152
   56RC     H3' 1802   6.393   6.417   5.242 -0.5643 -0.3919  0.3862
   56RC     C2' 1803   6.478   6.397   5.038 -0.3056 -0.8021 -0.0779
   56RC    H2'1 1804   6.403   6.456   4.986  1.2961  1.7123  0.3118
   56RC     O2' 1805   6.602   6.404   4.970  0.0621  0.0072 -0.3226
   56RC    HO'2 1806   6.629   6.496   4.972 -0.2500  0.1479 -1.5875
   56RC     O3' 1807   6.562   6.540   5.232  0.1304 -0.5998 -0.7752
   57RC       P 1808   6.587   6.673   5.149  0.2737  0.6383  0.1103
   57RC     O1P 1809   6.692   6.647   5.048 -0.4286  0.1607  0.6653
   57RC     O2P 1810   6.599   6.792   5.239  0.1641  0.3748 -0.2087
   57RC     O5' 1811   6.448   6.688   5.076  0.2218  0.0068 -0.6386
   57RC     C5' 1812   6.443   6.740   4.948 -0.0236 -0.0305 -0.6148
   57RC    H5'1 1813   6.506   6.682   4.880  1.8114 -1.9249  2.4653
   57RC    H5'2 1814   6.479   6.842   4.951  1.9111 -0.6898 -0.1399
   57RC     C4' 1815   6.301   6.742   4.896 -0.0010 -0.6271 -0.9367
   57RC     H4' 1816   6.310   6.766   4.790  0.2191  1.8722 -0.4060
   57RC     O4' 1817   6.239   6.614   4.914 -0.2551 -0.3489 -0.0051
   57RC     C1' 1818   6.103   6.637   4.955 -0.0217  0.1384  0.0883
   57RC     H1' 1819   6.036   6.600   4.877  0.5572 -0.7068 -0.0167
   57RC      N1 1820   6.074   6.555   5.080 -0.0471 -0.1393 -0.0146
   57RC      C6 1821   6.157   6.565   5.189 -0.3066  0.4291  0.8498
   57RC      H6 1822   6.261   6.596   5.186  0.4022 -1.8260 -1.8285
   57RC      C5 1823   6.123   6.510   5.309 -0.0871 -0.8477  0.3973
   57RC      H5 1824   6.177   6.522   5.401 -1.0369  0.2050  0.8444
   57RC      C4 1825   5.999   6.440   5.312  0.1947 -0.1110 -0.0047
   57RC      N4 1826   5.962   6.381   5.418 -0.2127 -0.5115 -0.2148
   57RC     H41 1827   6.030   6.392   5.492 -0.2396 -1.4753 -0.0345
   57RC     H42 1828   5.881   6.322   5.420 -0.7434 -0.0100 -3.0758
   57RC      N3 1829   5.921   6.426   5.209 -0.1212 -0.2871 -0.9313
   57RC      C2 1830   5.956   6.482   5.093  0.2461 -0.0536  0.0139
   57RC      O2 1831   5.877   6.472   4.997 -0.5763  0.4160 -0.6821
   57RC     C3' 1832   6.222   6.838   4.980  0.4960 -0.1451 -0.2433
   57RC     H3' 1833   6.250   6.833   5.086 -2.9302  0.1223  0.7897
   57RC     C2' 1834   6.077   6.782   4.977  0.1007 -0.9101  0.6872
   57RC    H2'1 1835   6.039   6.798   5.078  2.2341  1.6444  1.2057
   57RC     O2' 1836   5.990   6.833   4.873 -0.5289 -0.3710 -0.7070
   57RC    HO'2 1837   5.997   6.929   4.879  0.5631 -0.5041  2.8062
   57RC     O3' 1838   6.235   6.970   4.930 -0.4243 -0.5049 -0.2271
   58RU       P 1839   6.159   7.091   4.990 -0.3672  0.4686  0.1502
   58RU     O1P 1840   6.260   7.198   4.996 -0.2624 -0.2016 -0.6549
   58RU     O2P 1841   6.096   7.041   5.114  0.3974  0.1554  0.1499
   58RU     O5' 1842   6.042   7.117   4.881  0.6364  0.2620 -0.2901
   58RU     C5' 1843   6.076   7.164   4.749  0.2158  0.7076  0.3633
   58RU    H5'1 1844   6.141   7.089   4.703 -1.0411 -0.4116  0.3490
   58RU    H5'2 1845   6.131   7.257   4.762  0.2184  1.0284 -1.6421
   58RU     C4' 1846   5.956   7.197   4.659  0.0356 -0.1346 -0.3242
   58RU     H4' 1847   5.991   7.240   4.566  0.4879 -1.0786 -0.6073
   58RU     O4' 1848   5.885   7.075   4.633  0.3686  0.0334  0.2726
   58RU     C1' 1849   5.750   7.094   4.595  0.6399  0.5713 -0.7459
   58RU     H1' 1850   5.730   7.074   4.490 -2.5920  3.2307 -0.8183
   58RU      N1 1851   5.670   6.998   4.679 -0.0233 -0.0694 -0.2305
   58RU      C6 1852   5.698   6.969   4.812  0.0655 -0.0286  0.0084
   58RU      H6 1853   5.778   7.018   4.865  1.6733 -1.3151 -1.1312
   58RU      C5 1854   5.614   6.886   4.884 -0.4128 -0.0278  0.3042
   58RU      H5 1855   5.640   6.853   4.984 -1.4191 -3.8463 -0.5606
   58RU      C4 1856   5.495   6.830   4.825 -0.1707 -0.5500 -0.0053
   58RU      O4 1857   5.420   6.759   4.887 -0.2698 -0.1770  0.4699
   58RU      N3 1858   5.469   6.868   4.696  0.2127  0.3138  0.7252
   58RU      H3 1859   5.383   6.838   4.651  0.1943 -1.5710  1.8974
   58RU      C2 1860   5.558   6.946   4.617 -0.4434 -0.9070 -0.4282
   58RU      O2 1861   5.526   6.963   4.501 -0.3008  0.0470 -0.2468
   58RU     C3' 1862   5.836   7.282   4.713 -0.8856  0.6969  0.2340
   58RU     H3' 1863   5.808   7.250   4.813  1.7344 -1.4373  0.3901
   58RU     C2' 1864   5.726   7.242   4.609  0.1329  1.1238 -0.7146
   58RU    H2'1 1865   5.624   7.270   4.635 -0.3557 -0.4408 -0.8285
   58RU     O2' 1866   5.758   7.299   4.486  0.5317  0.2927  0.6029
   58RU    HO'2 1867   5.828   7.361   4.508  0.9591 -0.6035  1.8570
   58RU     O3' 1868   5.866   7.421   4.704 -0.2928 -0.0494  0.1086
   59RG       P 1869   5.782   7.529   4.791  0.3690 -0.1756 -0.0290
   59RG     O1P 1870   5.843   7.661   4.772  0.4446  0.0399  0.3261
   59RG     O2P 1871   5.765   7.477   4.927 -0.1748  0.5239  0.2538
   59RG     O5' 1872   5.640   7.537   4.720  0.5213  0.4374  0.3314
   59RG     C5' 1873   5.618   7.596   4.590 -0.7674  0.1758 -0.5276
   59RG    H5'1 1874   5.672   7.537   4.516  0.4937 -2.4336  2.2346
   59RG    H5'2 1875   5.649   7.700   4.597  3.1224 -0.7989 -1.0814
   59RG     C4' 1876   5.467   7.579   4.551 -0.2341  0.1433  0.2582
   59RG     H4' 1877   5.443   7.634   4.459  3.7806 -1.1897 -1.8069
   59RG     O4' 1878   5.444   7.442   4.528 -0.2369 -0.7499 -0.3299
   59RG     C1' 1879   5.313   7.409   4.567  0.3070  0.4431 -0.2807
   59RG     H1' 1880   5.254   7.364   4.487  1.9006  1.9339 -2.4295
   59RG      N9 1881   5.306   7.316   4.676 -0.2682 -0.8565  0.0258
   59RG      C8 1882   5.407   7.282   4.769 -0.2624 -0.2692  0.0071
   59RG      H8 1883   5.496   7.343   4.776 -0.3781 -0.2459  1.5165
   59RG      N7 1884   5.381   7.189   4.852 -0.2299  0.4004  0.2728
   59RG      C5 1885   5.257   7.142   4.813  1.3976 -0.3107  0.6402
   59RG      C6 1886   5.172   7.032   4.863  0.5103  0.0771  0.6599
   59RG      O6 1887   5.200   6.949   4.949  0.6383  0.2321 -0.9506
   59RG      N1 1888   5.045   7.035   4.802  0.4490  0.5369  0.7809
   59RG      H1 1889   4.984   6.959   4.831 -0.4021  0.8385 -0.1436
   59RG      C2 1890   5.006   7.123   4.702 -0.7973  0.0847 -0.7958
   59RG      N2 1891   4.886   7.117   4.654  0.7190  0.2295 -0.3225
   59RG     H21 1892   4.823   7.044   4.686  1.6442  0.2584  1.7618
   59RG     H22 1893   4.851   7.189   4.593  1.2154  1.6148  0.9781
   59RG      N3 1894   5.084   7.215   4.652  0.6571 -0.0000 -0.0800
   59RG      C4 1895   5.208   7.225   4.710  0.0279  0.2497  0.3504
   59RG     C3' 1896   5.366   7.632   4.649  0.8547 -0.1231 -0.2585
   59RG     H3' 1897   5.385   7.611   4.754 -0.5481  3.1324  0.7825
   59RG     C2' 1898   5.249   7.543   4.602 -0.3346 -0.0808 -0.7447
   59RG    H2'1 1899   5.183   7.534   4.689 -0.4385  1.5517 -0.6269
   59RG     O2' 1900   5.180   7.595   4.483 -0.2259  0.5495 -0.3387
   59RG    HO'2 1901   5.224   7.674   4.449 -0.5593  1.5081  1.3283
   59RG     O3' 1902   5.343   7.773   4.636  0.4008  0.1754  0.3838
   60RC       P 1903   5.284   7.857   4.748 -0.1301 -0.0061  0.1032
   60RC     O1P 1904   5.264   7.993   4.686  0.0412 -0.1190  0.0714
   60RC     O2P 1905   5.375   7.848   4.863 -0.1958  0.3268  0.2345
   60RC     O5' 1906   5.144   7.796   4.782  0.0236 -0.0291 -0.1048
   60RC     C5' 1907   5.032   7.823   4.702 -0.3564 -0.3177  0.4758
   60RC    H5'1 1908   5.057   7.810   4.597 -1.5146  0.7559  0.0383
   60RC    H5'2 1909   5.000   7.927   4.716  4.3620  1.3484  0.4088
   60RC     C4' 1910   4.916   7.728   4.727 -0.5899  0.5173 -0.3873
   60RC     H4' 1911   4.846   7.751   4.647 -0.7569  0.2053 -0.3339
   60RC     O4' 1912   4.954   7.595   4.714  0.7956 -0.6395  0.3055
   60RC     C1' 1913   4.860   7.518   4.793 -0.3383  0.2471  0.3852
   60RC     H1' 1914   4.801   7.450   4.732 -0.6622  0.1998  0.7475
   60RC      N1 1915   4.934   7.446   4.909 -0.3565 -0.1523  0.0614
   60RC      C6 1916   5.065   7.483   4.941 -0.2824 -1.1155  0.3442
   60RC      H6 1917   5.105   7.576   4.903 -2.7618  0.3209  1.0223
   60RC      C5 1918   5.141   7.412   5.023  0.9572  0.3096  0.1267
   60RC      H5 1919   5.240   7.446   5.051  0.1653  2.0458  1.0063
   60RC      C4 1920   5.087   7.289   5.072  0.1520 -0.3847 -0.1449
   60RC      N4 1921   5.153   7.205   5.144 -0.1447 -0.5418  0.3408
   60RC     H41 1922   5.233   7.227   5.200  1.3976  2.8640 -2.8081
   60RC     H42 1923   5.115   7.112   5.158 -1.3384  0.1297  1.8958
   60RC      N3 1924   4.963   7.250   5.049  0.1348  0.3730  0.0183
   60RC      C2 1925   4.889   7.327   4.968 -0.1086  0.0279  0.0084
   60RC      O2 1926   4.782   7.285   4.946  0.3374  0.1003 -0.0153
   60RC     C3' 1927   4.841   7.745   4.860 -0.1207  0.1205 -0.6603
   60RC     H3' 1928   4.917   7.736   4.937 -0.4466  0.9993 -0.2139
   60RC     C2' 1929   4.765   7.619   4.859 -1.1350 -0.1227 -0.1289
   60RC    H2'1 1930   4.744   7.583   4.960  0.2101 -0.2296  0.1225
   60RC     O2' 1931   4.646   7.623   4.791  0.7575  0.2755  0.3444
   60RC    HO'2 1932   4.619   7.715   4.794 -1.8657 -0.3463 -1.0730
   60RC     O3' 1933   4.776   7.870   4.885  0.0042  0.0683  0.2384
   61RC3      P 1934   4.752   7.927   5.031 -0.1970  0.3880 -0.0813
   61RC3    O1P 1935   4.658   8.046   5.036 -0.3482  0.5699 -0.5733
   61RC3    O2P 1936   4.879   7.940   5.100  0.1369  0.1315 -0.6334
   61RC3    O5' 1937   4.675   7.809   5.104 -0.0830  0.0945  0.3145
   61RC3    C5' 1938   4.541   7.799   5.094 -0.1596  0.0118  0.0929
   61RC3   H5'1 1939   4.525   7.804   4.986  1.9270 -0.6465 -0.2770
   61RC3   H5'2 1940   4.507   7.894   5.137 -1.6813  0.1863 -1.3590
   61RC3    C4' 1941   4.469   7.675   5.155 -0.3242 -0.0198  0.1352
   61RC3    H4' 1942   4.363   7.671   5.129 -0.3626  0.5107  0.1987
   61RC3    O4' 1943   4.538   7.552   5.133 -0.0905 -0.1909 -0.1160
   61RC3    C1' 1944   4.535   7.474   5.250 -0.4796  0.6202  0.3244
   61RC3    H1' 1945   4.468   7.390   5.232  0.3175  0.2712 -1.1532
   61RC3     N1 1946   4.665   7.401   5.278  0.8219 -0.6243 -0.1112
   61RC3     C6 1947   4.784   7.467   5.265 -0.8136 -0.2412 -0.6187
   61RC3     H6 1948   4.785   7.563   5.217  0.9623 -0.5877 -1.3235
   61RC3     C5 1949   4.900   7.429   5.327  0.1858 -0.4901 -0.1138
   61RC3     H5 1950   4.985   7.495   5.327  0.1710 -0.4713 -0.0875
   61RC3     C4 1951   4.895   7.298   5.377 -0.9964 -0.1829  0.5008
   61RC3     N4 1952   5.002   7.259   5.435 -0.0354 -0.0816 -0.3452
   61RC3    H41 1953   5.084   7.317   5.443 -0.6172  0.5296  2.7831
   61RC3    H42 1954   4.995   7.175   5.490  0.0673  0.2935  0.2516
   61RC3     N3 1955   4.789   7.228   5.399 -0.0695  0.3274  0.1673
   61RC3     C2 1956   4.670   7.279   5.347  0.1766  0.4500  0.4093
   61RC3     O2 1957   4.564   7.221   5.384  0.1119  0.5700 -0.1058
   61RC3    C3' 1958   4.472   7.691   5.310 -0.3440 -0.2732  0.2492
   61RC3    H3' 1959   4.567   7.736   5.338 -0.9345  2.2519 -1.4673
   61RC3    C2' 1960   4.462   7.550   5.364 -0.4943 -0.0550 -0.7350
   61RC3   H2'1 1961   4.506   7.537   5.463 -2.1911  0.5644  0.1648
   61RC3    O2' 1962   4.322   7.513   5.363 -0.8054  0.2490  0.1900
   61RC3   HO'2 1963   4.317   7.429   5.408  1.0134 -0.5596 -1.0254
   61RC3    O3' 1964   4.376   7.787   5.343 -0.0480  0.4990 -0.3033
   61RC3    H3T 1965   4.318   7.738   5.402 -0.2675  0.1678 -0.7869
   62K        K 1966   0.559   5.946   3.439  0.3755  0.2536  0.1820
   63K        K 1967   6.142   7.400   0.643 -0.0230 -0.7307  0.0449
   64K        K 1968   1.598   7.691   0.883 -0.4594 -0.4263 -0.3107
   65K        K 1969   2.488   8.901  -0.032  0.5650 -0.4031 -0.1185
   66K        K 1970   1.445   6.170   6.569  0.1746  0.3109 -0.2283
   67K        K 1971   5.864   4.691  -1.546  0.1363 -0.0627 -0.1342
   68K        K 1972   6.775   5.272   5.326 -0.0132  0.2581 -0.4075
   69K        K 1973   6.844   6.234   4.040 -0.0922 -0.0051 -0.3283
   70K        K 1974   4.686   8.882   3.112 -0.0667 -0.0597 -0.2757
   71K        K 1975   8.203   8.767   2.623  0.3640 -0.0671  0.6019
   72K        K 1976   0.407   9.267   2.400  0.2129  0.2795  0.1647
   73K        K 1977   1.908   5.740   4.757  0.0554 -0.2584  0.2232
   74K        K 1978   4.547   5.040   5.422  0.2191 -0.1854  0.2934
   75K        K 1979   5.224   3.594   5.990 -0.1499  0.2814  0.0166
   76K        K 1980   6.369   7.345   5.441 -0.0198 -0.0517 -0.4022
   77K        K 1981   2.130  11.649   3.219  0.2058 -0.0901 -0.2888
   78K        K 1982   7.436   6.001   1.093  0.1061 -0.0950  0.4400
   79K        K 1983   4.762   5.057   5.806  0.6755  0.3012  0.1268
   80K        K 1984   0.174  11.876  -1.037  0.4478  0.0674 -0.0127
   81K        K 1985   5.015   9.931  -2.629 -0.0734  0.2566  0.2210
   82K        K 1986   2.535   5.635   2.708 -0.0459 -0.0971 -0.0700
   83K        K 1987   5.930   4.799   6.439 -0.0137 -0.4124 -0.0152
   84K        K 1988   2.766   7.179   3.397  0.2419 -0.3721 -0.0030
   85K        K 1989   0.405   5.255  -2.088 -0.6890  0.0748  0.1229
   86K        K 1990   7.812   4.029  -1.482 -0.0597  0.3905  0.2225
   87K        K 1991   5.716   6.274   5.102  0.4129  0.0738 -0.2556
   88K        K 1992   5.867   9.633   1.704  0.4108 -0.5382 -0.0264
   89K        K 1993   7.810   4.766   0.106 -0.0331  0.3026  0.3921
   90K        K 1994   2.067   9.373   3.562  0.0435  0.3893 -0.5328
   91K        K 1995   2.631   9.998   4.510 -0.3557 -0.0455 -0.0850
   92K        K 1996   8.778   5.403   0.995  0.2543  0.3850  0.0215
   93K        K 1997   5.416   5.962   4.416 -0.3666  0.0209 -0.2724
   94K        K 1998   7.893  12.129  -1.464 -0.4630 -0.1426 -0.0199
   95K        K 1999   0.785   9.463   2.821  0.5158  0.3605 -0.2801
   96K        K 2000   9.275   3.748  -0.218 -0.0099  0.2200 -0.1056
   97K        K 2001   4.718   3.824  -2.068  0.0238 -0.1596  0.0043
   98K        K 2002   3.803   8.687   5.400 -0.0071  0.2930 -0.1588
   99K        K 2003   4.386   3.430   0.908  0.3138  0.6160 -0.1208
  100K        K 2004   8.504  10.595   3.914 -0.1668 -0.1542 -0.0875
  101K        K 2005   5.996  12.495  -1.179  0.1381  0.2813  0.3576
  102K        K 2006   0.062   6.792  -1.471  0.3488  0.2855  0.0045
  103K        K 2007   5.960   3.032   5.004 -0.0695  0.1526 -0.3683
  104K        K 2008   4.043   3.674   5.397  0.0497 -0.3352  0.0350
  105K        K 2009   5.306   6.816   5.166  0.3903  0.1909  0.1102
  106K        K 2010   1.899   9.428   2.476 -0.3489 -0.0088  0.1120
  107K        K 2011   4.552   5.755   5.219 -0.2775 -0.0067 -0.0905
  108K        K 2012   3.834   7.142   3.947  0.2106 -0.0293 -0.2860
  109K        K 2013  -0.435   6.944   2.853 -0.1070 -0.2695 -0.2882
  110K        K 2014   3.100   6.358   2.188  0.2731 -0.2205 -0.1859
  111K        K 2015   6.724  12.741   2.054 -0.0132 -0.1139 -0.0162
  112K        K 2016   4.463   3.048   2.424 -0.3137 -0.1534 -0.4527
  113K        K 2017   5.071   8.168   4.604  0.1638 -0.0094  0.0873
  114K        K 2018   2.779   7.847  -0.407 -0.1947 -0.3641  0.2587
  115K        K 2019   6.654   5.457   0.526  0.6002  0.0809 -0.3609
  116K        K 2020   5.667   5.144   6.254  0.3502 -0.0362 -0.2939
  117K        K 2021   4.638  12.237   4.431  0.2101  0.2330 -0.0289
  118K        K 2022   3.328   7.288   6.984 -0.0123  0.3717  0.2850
  119K        K 2023  -0.090   5.954  -1.765  0.3594  0.3138 -0.3681
  120K        K 2024   6.455  10.571   2.171  0.0773  0.0846  0.0552
  121K        K 2025   3.665   8.530   4.510  0.0689  0.1250  0.4232
  122K        K 2026   1.041   5.792  -0.432  0.0056 -0.6553 -0.1569
  123K        K 2027   0.769   6.677  -0.666 -0.3959 -0.2342  0.1255
  124K        K 2028   1.542   3.480   2.349  0.5191 -0.0947 -0.1749
  125K        K 2029   3.865  11.302  -1.418 -0.0165 -0.4982 -0.2812
  126K        K 2030   3.155  11.973   6.048 -0.4729  0.3944  0.1939
  127K        K 2031   1.166  12.205   4.591  0.3257  0.2050  0.3432
  128K        K 2032   1.090   6.992  -0.833  0.2361  0.2215  0.2118
  129K        K 2033   5.348   4.602   6.108  0.2391 -0.3707 -0.0021
  130K        K 2034   1.795   3.481   0.135  0.1682 -0.1726 -0.0473
  131K        K 2035   4.309   5.216   4.909  0.1911  0.1046  0.0060
  132K        K 2036   8.602   3.151   6.406 -0.3991 -0.1016  0.2003
  133K        K 2037   5.017   6.275   4.601  0.2903  0.0493  0.2370
  134K        K 2038   8.171   7.291   5.884 -0.1251  0.0113  0.6903
  135K        K 2039   7.073   6.780   4.936 -0.3049  0.2036 -0.4839
  136K        K 2040   3.916  12.817   4.084 -0.0661  0.1102 -0.0023
  137K        K 2041   4.787   4.598   4.369 -0.5259  0.0932 -0.2146
  138K        K 2042   1.655   4.787   3.597 -0.0913  0.7410  0.2478
  139K        K 2043   5.254   3.520  -1.703  0.2114  0.1906  0.1811
  140K        K 2044   6.363   8.611  -1.296 -0.2663 -0.0775  0.0133
  141K        K 2045   6.109  10.768  -0.208 -0.2036 -0.1541  0.5325
  142K        K 2046   6.687  11.439   0.555 -0.0049 -0.2123 -0.1313
  143K        K 2047   7.913   7.453   1.234  0.3000 -0.2369 -0.0666
  144K        K 2048   5.040   9.897  -0.248 -0.3727  0.1539 -0.5073
  145K        K 2049   5.289  11.783   5.911 -0.2051  0.0549 -0.4366
  146K        K 2050   8.418   3.998   6.928 -0.3641 -0.3035 -0.1032
  147K        K 2051   6.368   4.248   6.013  0.1815 -0.2587  0.1909
  148K        K 2052   4.839   4.256   1.478 -0.6486  0.0742 -0.4160
  149K        K 2053   6.565   6.922  -0.979 -0.1417  0.5612  0.3213
  150K        K 2054   2.730   3.813   6.709  0.1336 -0.2656 -0.3056
  151K        K 2055   2.408  12.031  -2.526  0.0324  0.1620  0.2194
  152K        K 2056   4.062   3.863   4.754  0.0853  0.2366 -0.1388
  153K        K 2057   4.488  10.293   4.173 -0.0290  0.0838  0.3970
  154K        K 2058   5.536   6.574   5.619 -0.4279 -0.5919  0.0095
  155K        K 2059   1.562   6.854  -2.244 -0.1806 -0.4700 -0.1774
  156K        K 2060   2.876  11.468   6.550 -0.1571 -0.5402  0.1004
  157K        K 2061   1.529  11.983   4.688 -0.1977 -0.0333  0.2895
  158K        K 2062   6.008  11.139   4.933  0.1983 -0.0319 -0.0717
  159K        K 2063   4.472  12.892  -1.770  0.1955 -0.3956 -0.0223
  160K        K 2064   8.932   7.322   4.197  0.0559 -0.0175 -0.1976
  161K        K 2065   0.824   4.191   1.607  0.2584 -0.5719  0.1252
  162K        K 2066  -0.307   9.783   6.546 -0.2522  0.0200  0.3440
  163K        K 2067   0.242   8.983   0.850  0.1753 -0.1781 -0.3073
  164K        K 2068   7.878   6.380  -0.865  0.1426 -0.0666 -0.4157
  165K        K 2069   5.079  12.056   3.171 -0.0699  0.2799 -0.4638
  166K        K 2070   9.104   8.365  -1.040 -0.1412 -0.1190 -0.0401
  167K        K 2071   6.887   7.648  -0.608  0.0688 -0.1163 -0.1116
  168CL      CL 2072   1.288   9.938   1.887 -0.2982  0.1918 -0.0581
  169CL      CL 2073   3.196  12.558   4.931  0.1321  0.2877 -0.0241
  170CL      CL 2074   8.444   4.855  -1.919  0.2272 -0.0419  0.0883
  171CL      CL 2075   0.767  11.673   2.583 -0.3327 -0.1096  0.2896
  172CL      CL 2076   2.478   7.804   6.882  0.0694 -0.3068  0.0157
  173CL      CL 2077   0.771   5.228   4.735 -0.1353 -0.2985  0.0591
  174CL      CL 2078   6.333   4.671   6.855  0.0433  0.0489 -0.0236
  175CL      CL 2079   7.503  10.583   5.971  0.1371 -0.1311 -0.0286
  176CL      CL 2080   6.211   7.764  -1.498 -0.0007  0.0981  0.1520
  177CL      CL 2081   4.982   3.112  -1.688 -0.2765  0.3723 -0.1378
  178CL      CL 2082   7.501   8.246   7.022 -0.4373  0.5053  0.3122
  179CL      CL 2083   1.827  12.169   4.599  0.1359  0.5463  0.0424
  180CL      CL 2084   7.008  11.526  -0.449  0.0490 -0.2126 -0.3258
  181CL      CL 2085   2.550  10.650   3.456 -0.0858 -0.0264  0.2067
  182CL      CL 2086   6.542   7.347   0.336  0.1125 -0.0082 -0.5625
  183CL      CL 2087   2.823   7.214   1.311 -0.2618  0.3144  0.1989
  184CL      CL 2088   4.774   9.172   6.085  0.1863 -0.1302  0.4925
  185CL      CL 2089   1.006  11.866   2.134 -0.1532 -0.6021  0.2168
  186CL      CL 2090   1.710   6.835   0.141 -0.2293  0.0823 -0.2700
  187CL      CL 2091   4.439   9.715   3.460  0.0899  0.1611  0.3524
  188CL      CL 2092   5.204   3.571  -2.512 -0.3179 -0.0683 -0.2316
  189CL      CL 2093   5.284   8.723   6.561 -0.2381  0.1040 -0.0479
  190CL      CL 2094   1.633  11.694   1.100 -0.2837  0.0923  0.0564
  191CL      CL 2095   4.307  12.803  -2.818 -0.0202  0.1817  0.0008
  192CL      CL 2096   8.685   3.787   3.400 -0.0114  0.1383  0.1942
  193CL      CL 2097   7.925   9.777   1.096  0.3069  0.9469  0.1483
  194CL      CL 2098   7.794  10.740   6.568  0.0794  0.2672 -0.2229
  195CL      CL 2099   5.167   7.674  -0.537 -0.1676 -0.0167  0.0482
  196CL      CL 2100   3.020   9.744  -1.709 -0.0103  0.1223 -0.1707
  197CL      CL 2101   6.724   4.583   3.451 -0.2664 -0.0616 -0.6072
  198CL      CL 2102   2.851   7.389   2.382  0.0311  0.0018  0.2398
  199CL      CL 2103   8.766   7.825   1.205  0.1986  0.3850 -0.5716
  200CL      CL 2104   7.410   8.165   1.952 -0.1400  0.2951 -0.3207
  201CL      CL 2105   1.956   7.048  -2.572 -0.0025  0.2036  0.3451
  202CL      CL 2106   0.805   7.439  -0.278 -0.0550 -0.3900 -0.2949
  203CL      CL 2107   7.763   9.185   3.286 -0.1353 -0.1177 -0.0276
  204CL      CL 2108   7.807   6.185   5.283 -0.2221 -0.0118 -0.1755
  205CL      CL 2109   2.964   5.549  -1.192 -0.1850  0.5725  0.2252
  206CL      CL 2110   4.317   4.654   0.972  0.1332 -0.0192  0.0768
  207CL      CL 2111   6.968  12.751   2.240  0.1884  0.2905  0.1049
  208CL      CL 2112   3.665   8.480   4.811 -0.1656  0.2102  0.0662
  209CL      CL 2113   8.375   7.598  -1.730 -0.0438 -0.1059 -0.1264
  210CL      CL 2114   3.622  10.304   6.342  0.1493  0.0016  0.0453
  211CL      CL 2115  -0.062   8.434   5.434 -0.0071  0.2187  0.3132
  212CL      CL 2116   5.548  10.987   7.037  0.2459  0.0665 -0.4087
  213CL      CL 2117   6.086   8.059   3.765  0.4420 -0.1360  0.0463
  214CL      CL 2118   4.780  12.478   5.765  0.1288 -0.2331  0.2678
  215CL      CL 2119   1.084   5.375   5.367 -0.5248 -0.2045 -0.0955
  216CL      CL 2120   1.511   9.053   2.258 -0.4266 -0.1055  0.0896
  217CL      CL 2121   5.610   3.845  -1.488  0.2543 -0.2126 -0.1002
  218CL      CL 2122   6.346   9.454   6.364 -0.2608  0.1586  0.1375
31851K        K97019   3.586   4.740   5.980  0.0829  0.1472  0.0368
31852K        K97020   6.874   0.447   8.610  0.4097 -0.2756 -0.0473
31853K        K97021   4.536   3.189   4.134  0.0793 -0.6722  0.1092
31854K        K97022   9.207   1.028   8.096 -0.2298 -0.6614  0.0189
31855K        K97023   5.500   4.151   3.323 -0.3440 -0.4136  0.1080
31856K        K97024   4.273   5.932   5.709 -0.1795  0.0049 -0.2550
31857K        K97025   4.870   5.092   2.782 -0.0836 -0.1166  0.1967
31858K        K97026   7.814   7.633   0.826 -0.0614  0.2709  0.1081
31859K        K97027   7.212   3.319   0.475 -0.0167 -0.1465  0.0838
31860K        K97028   4.703   3.669   7.104  0.2154  0.0649 -0.1339
31861K        K97029   3.608   7.892   8.882 -0.2147 -0.0602 -0.0273
31862K        K97030   8.589   1.575   3.214 -0.1748 -0.2237 -0.4567
31863K        K97031   2.835   0.894   0.362  0.0722 -0.0081 -0.2176
31864K        K97032   6.426   4.049   5.225  0.2224 -0.0365  0.0734
31865K        K97033   1.080   3.525   0.457 -0.0094  0.0246 -0.4577
31866K        K97034   4.166   5.695   6.035 -0.2848 -0.7153 -0.0634
31867K        K97035   5.366   9.587   7.801 -0.0462 -0.2079  0.2871
31868K        K97036   9.417   9.240   1.928 -0.1414  0.0971 -0.2238
31869K        K97037   8.736   5.610   5.039 -0.2482  0.2718  0.0560
31870K        K97038   1.829   0.216   6.380  0.3247 -0.0367  0.1594
31871K        K97039   3.238   6.884   0.158 -0.1102 -0.2487 -0.1913
31872K        K97040   3.547   7.142   1.996  0.3806  0.0983 -0.2292
31873K        K97041   7.204   5.659   8.980  0.3272 -0.4007  0.1713
31874K        K97042   3.368   9.760   6.690  0.0792  0.1687  0.0150
31875K        K97043   5.202   7.369   6.309 -0.3490  0.2528  0.2575
31876K        K97044   3.935   2.355   0.483  0.0124 -0.0813  0.2753
31877K        K97045   6.184   4.687   3.069  0.1735  0.3422 -0.0822
31878K        K97046   7.587   8.310   2.162  0.0040  0.2952  0.1112
31879K        K97047   3.077   2.225   1.099  0.0032 -0.6698  0.0395
31880K        K97048   7.230   7.881   1.839 -0.0335 -0.1174 -0.1809
31881K        K97049   5.674   4.051   6.724 -0.1116 -0.3316  0.0448
31882K        K97050   4.785   5.741   0.476  0.4570 -0.3536  0.1382
31883K        K97051   3.429   8.766   0.752 -0.1517 -0.2538  0.1160
31884K        K97052   7.678   2.878   4.358 -0.1082  0.5528  0.1166
31885K        K97053   2.348   1.966   3.341  0.0632  0.1967  0.1247
31886K        K97054   1.384   9.527   9.386 -0.2054 -0.1173  0.0651
31887K        K97055   1.424   9.489   8.120  0.5250  0.3426  0.1310
31888K        K97056   5.933   3.902   4.098 -0.2998 -0.0982  0.2983
31889K        K97057   0.393   9.526   6.852  0.4290 -0.1586  0.0817
31890K        K97058   4.339   4.472   5.117  0.1338 -0.6379  0.2543
31891K        K97059   8.760   4.496   4.327 -0.1812  0.5300 -0.1637
31892K        K97060   5.833   8.971   6.116 -0.0256  0.5801 -0.0690
31893K        K97061   6.680   1.436   4.179 -0.0805  0.2781  0.3233
31894K        K97062   6.409   1.659   5.938  0.3155 -0.4726  0.2486
31895K        K97063   4.888   2.834   8.223 -0.1019 -0.4983 -0.2235
31896K        K97064   4.922   5.966   5.428 -0.3900 -0.1323 -0.1158
31897K        K97065   4.424   4.506   3.987 -0.1213  0.3335  0.0253
31898K        K97066   2.540   8.237   4.914 -0.1928 -0.1307 -0.1608
31899K        K97067   3.246   7.411   1.065 -0.1122  0.3112  0.1825
31900K        K97068   3.827   0.306   9.052 -0.3142 -0.0017  0.1846
31901K        K97069   3.399   3.372   6.378 -0.3343 -0.0422 -0.4347
31902K        K97070   2.200   1.070   2.444  0.1488 -0.2106 -0.0517
31903K        K97071   5.714   0.559   6.110  0.0789  0.1207 -0.1177
31904K        K97072   8.390   8.349   0.411 -0.1594 -0.0402  0.1890
31905K        K97073   5.441   1.562   4.933  0.1306 -0.1910 -0.0441
31906K        K97074   8.598   4.614   2.743 -0.1790  0.1352  0.0517
31907K        K97075   2.821   1.830   8.113  0.0947 -0.4866  0.1384
31908K        K97076   9.538   0.722   4.288 -0.2974  0.0371  0.2021
31909K        K97077   2.040   4.211   9.086  0.1821 -0.0571  0.1274
31910K        K97078   3.079   0.760   9.648 -0.1398  0.1754  0.4347
31911K        K97079   2.108   6.755   2.720  0.5794  0.2516 -0.3024
31912K        K97080   6.658   0.863   3.713 -0.4659  0.1725  0.2571
31913K        K97081   6.490   6.398   6.079  0.3150 -0.3026 -0.1042
31914K        K97082   2.748   4.125   6.415 -0.1752  0.0416  0.0680
31915K        K97083   8.115   7.505   1.734 -0.2785  0.0688 -0.4323
31916K        K97084   2.850   6.460   6.961  0.1702 -0.0681  0.1501
31917K        K97085   3.415   4.842   8.539  0.0118  0.3430 -0.3373
31918K        K97086   9.729   3.269   4.307  0.1980 -0.1478 -0.0340
31919K        K97087   7.357   1.624   6.456  0.0679 -0.0024 -0.0483
31920K        K97088   5.836   3.422   2.990  0.3473 -0.1192  0.0692
31921K        K97089   2.651   3.345   4.259 -0.3634 -0.2331  0.0595
31922K        K97090   2.681   9.882   0.806  0.1900  0.1338 -0.0696
31923K        K97091   2.042   4.536   3.251 -0.0140 -0.2404  0.3576
31924K        K97092   1.867   7.209   7.625  0.0001  0.0018  0.0290
31925K        K97093   5.746   5.845   3.756 -0.2706 -0.0324  0.5867
31926K        K97094   7.392   5.787   8.118 -0.0856 -0.2374  0.0789
31927K        K97095   5.889   5.698   3.126 -0.3194 -0.1484 -0.0480
31928K        K97096   4.137   7.036   9.314 -0.1517  0.2051  0.0070
31929K        K97097   6.674   3.812   5.447  0.4296  0.1206 -0.0206
31930K        K97098   1.001   6.127   3.877 -0.0768 -0.0811 -0.0425
31931K        K97099   7.688   1.183   9.698  0.0386  0.2444  0.2348
31932K        K97100   6.501   4.535   5.755 -0.0394  0.0019 -0.0201
31933K        K97101   4.416   5.995   8.048 -0.0143  0.0451  0.1027
31934K        K97102   7.174   7.778   2.253  0.1667 -0.2123 -0.3043
31935K        K97103   6.019   4.778   4.291 -0.1338  0.0272 -0.1075
31936K        K97104   6.796   3.515   2.448 -0.0931  0.3105 -0.5180
31937K        K97105   8.275   6.988   3.788 -0.3728  0.4300 -0.1799
31938K        K97106   7.132   9.124   6.360 -0.1603  0.4724 -0.2992
31939K        K97107   5.679   5.744   4.167  0.2733 -0.1243  0.0228
31940K        K97108   4.458   0.111   2.877  0.1235 -0.5635  0.4413
31941K        K97109   0.257   6.892   0.730 -0.3505 -0.3356 -0.1161
31942K        K97110   6.972   7.783   6.776 -0.1441 -0.1808  0.3474
31943K        K97111   5.266   7.195   3.766 -0.0169 -0.0492 -0.2313
31944K        K97112   2.668   5.768   5.319 -0.1158  0.1436 -0.1423
31945K        K97113   4.495   7.727   3.500 -0.1606 -0.4631 -0.0608
31946K        K97114   7.446   0.561   6.479  0.4306  0.0429 -0.2172
31947K        K97115   6.662   8.184   5.988 -0.0217  0.0600 -0.3976
31948K        K97116   5.471   0.975   7.883  0.1548 -0.1404 -0.3770
31949K        K97117   0.346   2.774   5.988  0.0429 -0.3929 -0.0453
31950K        K97118   0.537   2.025   4.397 -0.3157  0.1318  0.0842
31951K        K97119   4.603   7.643   0.542  0.1207  0.2171 -0.1775
31952K        K97120   5.726   2.841   4.748  0.2323  0.0558 -0.1143
31953K        K97121   2.404   6.131   0.918 -0.2325  0.1309  0.3848
31954K        K97122   8.495   9.619   5.453 -0.2035  0.4540  0.0003
31955K        K97123   7.879   0.740   2.508 -0.2013  0.2654  0.4595
31956K        K97124   0.107   2.099   1.063  0.1160  0.4859 -0.0316
31957K        K97125   6.915   8.366   4.392  0.2513 -0.2653  0.3017
31958K        K97126   4.696   1.530   2.061  0.3683 -0.0728 -0.1442
31959K        K97127   7.083   5.132   4.302 -0.0543 -0.4077 -0.0269
31960K        K97128   3.162   5.262   6.258  0.0657 -0.3138 -0.2985
31961K        K97129   7.399   4.461   0.191 -0.0150 -0.1555 -0.3580
31962K        K97130   3.885   7.143   1.588  0.1788 -0.4663  0.0125
31963K        K97131   5.931   3.827   4.530 -0.1601  0.4252  0.1827
31964K        K97132   7.140   0.126   8.664  0.4909 -0.3428  0.1475
31965K        K97133   6.100   4.848   3.884 -0.0462  0.1136  0.2617
31966K        K97134   7.569   4.493   1.659 -0.1455  0.2585 -0.0483
31967K        K97135   4.078   9.788   5.636 -0.0979  0.2862 -0.4632
31968K        K97136   1.238   4.447   5.849 -0.1545 -0.0270  0.0508
31969K        K97137   1.575   9.189   6.794 -0.1429  0.3538  0.2895
31970K        K97138   8.050   5.208   4.100  0.2600 -0.2571 -0.2079
31971K        K97139   2.956   1.879   2.193  0.0967 -0.2921  0.1870
31972CL      CL97140   2.564   2.594   1.062 -0.5969 -0.1986 -0.1864
31973CL      CL97141   4.998   2.433   7.844 -0.1098  0.0312 -0.2046
31974CL      CL97142   0.609   5.047   5.936  0.3515  0.1318 -0.3361
31975CL      CL97143   1.314   5.427   7.083 -0.6738 -0.3274 -0.6777
31976CL      CL97144   3.271   7.437   8.885 -0.0334  0.1228  0.3565
31977CL      CL97145   0.647   7.131   1.366  0.0652  0.1546  0.2539
31978CL      CL97146   8.296   5.262   7.621 -0.2585 -0.0093  0.1584
31979CL      CL97147   2.949   1.167   7.004  0.1410  0.0634  0.3355
31980CL      CL97148   2.808   6.272   1.256  0.3125 -0.3363  0.1671
31981CL      CL97149   2.653   2.192   1.935 -0.1095  0.0053 -0.4859
31982CL      CL97150   0.073   3.750   7.250  0.1411  0.0208 -0.5069
31983CL      CL97151   5.209   7.716   6.417  0.3329  0.3644 -0.1299
31984CL      CL97152   4.902   3.383   1.103  0.7117  0.3636  0.0660
31985CL      CL97153   7.519   1.642   5.815 -0.2670 -0.2288  0.1366
31986CL      CL97154   6.462   0.740   2.669 -0.4449 -0.4576 -0.3491
31987CL      CL97155   1.776   6.079   1.657  0.1694 -0.1910 -0.1294
31988CL      CL97156   2.973   5.487   1.233  0.3160 -0.1104  0.0816
31989CL      CL97157   1.184   6.616   8.717 -0.1377 -0.0179 -0.2952
31990CL      CL97158   1.041   7.547   5.863 -0.1266  0.0492  0.1636
31991CL      CL97159   4.330   5.448   2.843  0.3705  0.1232 -0.5381
31992CL      CL97160   3.617   0.508   0.071  0.3510 -0.0205  0.0671
31993CL      CL97161   4.978   7.722   2.514 -0.0480 -0.5345 -0.3600
31994CL      CL97162   8.154   7.871   1.174  0.2149  0.3410  0.3611
31995CL      CL97163   9.678   3.195   5.535 -0.0547  0.5168  0.1040
31996CL      CL97164   5.720   3.512   8.133  0.3763 -0.0527  0.2024
31997CL      CL97165   8.799   6.904   9.418 -0.0706  0.1634  0.3347
31998CL      CL97166   9.335   2.393   4.288  0.4637  0.1648 -0.1567
31999CL      CL97167   3.834   8.580   6.742  0.4573 -0.2580 -0.2035
32000CL      CL97168   4.016   3.840   8.428  0.3529 -0.0898 -0.2979
32001CL      CL97169   2.207   6.926   9.089 -0.2101 -0.2776 -0.2946
32002CL      CL97170   4.032   9.806   9.203 -0.0086  0.6158  0.1499
32003CL      CL97171   3.849   7.851   0.128 -0.0190 -0.8872 -0.4401
32004CL      CL97172   8.979   9.132   1.654 -0.2481 -0.6543  0.0393
32005CL      CL97173   4.806   2.874   1.969 -0.2126 -0.0674  0.3250
32006CL      CL97174   7.884   7.346   2.179  0.2873 -0.1171  0.1213
32007CL      CL97175   6.964   6.040   9.579  0.2702 -0.2337 -0.4039
32008CL      CL97176   4.874   2.001   3.438  0.3463  0.0080  0.2117
32009CL      CL97177   9.918   8.047   0.030  0.0616  0.1320 -0.1040
32010CL      CL97178   6.948   9.768   4.175 -0.0133  0.0350  0.3283
32011CL      CL97179   3.727   1.555   8.724 -0.0193 -0.2270 -0.1887
32012CL      CL97180   8.490   1.710   7.236 -0.5103  0.0072  0.1083
32013CL      CL97181   6.949   6.893   1.615  0.0946  0.3721  0.3236
32014CL      CL97182   3.270   6.274   2.847  0.4762 -0.3557 -0.1422
32015CL      CL97183   8.648   4.816   8.474  0.3370  0.0714 -0.1481
32016CL      CL97184   3.927   3.072   0.835  0.0961  0.1780 -0.1809
32017CL      CL97185   7.427   0.825   8.837  0.0495  0.4045  0.1235
32018CL      CL97186   6.817   2.032   6.157 -0.3825  0.2489 -0.0330
32019CL      CL97187   4.038   9.323   9.105  0.0651  0.4107 -0.3058
32020CL      CL97188   8.741   5.726   0.949 -0.3876 -0.0645  0.1515
32021CL      CL97189   4.814   6.612   1.076 -0.0210  0.1332  0.3909
32022CL      CL97190   0.612   5.397   0.900  0.0937  0.1661  0.1097
32023CL      CL97191   6.941   5.190   0.846 -0.2060 -0.5617  0.0434
32024CL      CL97192   5.083   0.486   7.271  0.0492 -0.0620  0.1986
32025CL      CL97193   8.661   9.485   7.190  0.4801  0.1254 -0.3364
32026CL      CL97194   1.939   8.389   0.819  0.0844  0.0004  0.2594
32027CL      CL97195   4.976   0.517   9.258  0.3254 -0.1789 -0.3143
32028CL      CL97196   2.760   5.150   6.579 -0.1402  0.1429  0.6006
32029CL      CL97197   9.868   6.366   7.925  0.2834  0.0525  0.2727
32030CL      CL97198   2.074   9.500   9.836  0.1842 -0.1645 -0.0398
32031CL      CL97199   2.088   9.416   8.021 -0.3478 -0.0116  0.0821
32032CL      CL97200   0.570   3.899   5.248  0.4191  0.3181  0.1028
32033CL      CL97201   7.264   0.673   9.596 -0.0627  0.2006 -0.2036
32034CL      CL97202   7.294   5.034   9.077  0.1249 -0.0275 -0.2564
32035CL      CL97203   0.981   3.413   2.679 -0.1611 -0.0866 -0.2484
32036CL      CL97204   6.931   8.896   5.295  0.1407 -0.3958  0.1833
32037CL      CL97205   1.674   6.552   3.946  0.0873  0.0977  0.2746
32038CL      CL97206   8.869   1.273   6.770 -0.1365 -0.1873  0.3351
32039CL      CL97207   7.007   3.911   0.837 -0.4927 -0.1063 -0.4748
32040CL      CL97208   9.051   3.204   9.277  0.1118  0.4666  0.1392
32041CL      CL97209   6.766   7.237   8.664 -0.0923 -0.1010 -0.0342
32042CL      CL97210   3.448   7.369   3.203  0.6056 -0.4536 -0.2802
32043CL      CL97211   6.560   2.797   0.482 -0.1808  0.4565  0.0478
32044CL      CL97212   3.073   1.674   1.973  0.4239 -0.2767 -0.6938
32045CL      CL97213   8.865   7.017   4.150  0.3783  0.0488 -0.4308
32046CL      CL97214   7.282   4.605   7.097 -0.1344  0.8256  0.0937
32047CL      CL97215   4.477   8.170   0.224 -0.1592  0.2136 -0.6522
32048CL      CL97216   0.783   2.733   7.337 -0.3369  0.4609  0.2113
32049CL      CL97217   4.950   8.282   7.958 -0.2446  0.1991 -0.0227
32050CL      CL97218   0.267   0.094   6.022  0.0979 -0.0324  0.1678
32051CL      CL97219   1.210   0.268   3.220 -0.3328  0.3391  0.1573
32052CL      CL97220   0.711   7.250   8.074 -0.2601 -0.0220 -0.0652
32053CL      CL97221   0.271   3.642   8.152 -0.0492 -0.0851 -0.1391
32054CL      CL97222   7.542   4.700   0.315  0.0189 -0.2647  0.1084
32055CL      CL97223   2.502   2.463   2.878 -0.0907 -0.0621 -0.1631
32056CL      CL97224   3.559   7.201   3.800 -0.1851  0.1506 -0.2316
32057CL      CL97225   2.062   0.607   4.742 -0.1280 -0.3450  0.1510
32058CL      CL97226   1.492   0.020   7.843 -0.0318  0.2330 -0.0788
32059CL      CL97227   5.261   1.185   0.970 -0.1768  0.0015  0.4974
32060CL      CL97228   8.729   5.577   4.695  0.3040  0.2410  0.2763
32061CL      CL97229   9.151   5.384   0.015 -0.0207 -0.2260 -0.1808
32062CL      CL97230   5.171   1.429   1.743  0.1382 -0.3780 -0.3335
32063CL      CL97231   3.491   8.513   0.873  0.4166 -0.1306 -0.2714
32064CL      CL97232   0.431   3.285   0.866 -0.0100  0.2504  0.2637
32065CL      CL97233   6.792   5.631   8.440  0.3932  0.3008  0.0621
32066CL      CL97234   5.173   2.197   6.523  0.1005  0.0158  0.2045
32067CL      CL97235   7.729   8.005   1.613 -0.0857  0.7011 -0.1021
32068CL      CL97236   1.444   4.316   6.800 -0.1745 -0.0265  0.2178
32069CL      CL97237   1.620   5.750   9.247  0.2087  0.1629 -0.1389
32070CL      CL97238   1.838   2.754   0.314 -0.1785 -0.0613 -0.1246
32071CL      CL97239   1.366   2.689   2.140 -0.2386  0.3128  0.2179
32072CL      CL97240   7.750   6.709   3.419 -0.3422  0.0844  0.5070
32073CL      CL97241   6.094   1.641   9.697  0.0313  0.1771  0.2966
32074CL      CL97242   4.062   9.490   3.698  0.0230 -0.0695 -0.5227
32075CL      CL97243   1.199   9.404   3.339 -0.0527  0.0273 -0.3129
32076CL      CL97244   9.916   0.951   9.165 -0.4159 -0.3051  0.5146
32077CL      CL97245   2.752   4.947   7.465  0.1230 -0.2416 -0.1713
32078CL      CL97246   0.863   1.885   5.016  0.0873 -0.1338  0.0359
32079CL      CL97247   2.238   3.896   0.183 -0.1254 -0.5682  0.0532
32080CL      CL97248   4.216   0.982   2.513  0.0909 -0.1111 -0.0996
32081CL      CL97249   8.841   0.552   2.992 -0.1536 -0.3475  0.1770
32082CL      CL97250   6.411   8.103   4.345  0.3874  0.0034 -0.7004
32083CL      CL97251   8.304   8.084   4.289  0.0090 -0.2056 -0.0955
32084CL      CL97252   7.692   9.935   2.071  0.4375 -0.0976  0.2807
32085CL      CL97253   9.468   3.461   1.104 -0.1977 -0.4155  0.0558
32086CL      CL97254   6.970   8.847   9.011 -0.1691  0.2147  0.0115
32087CL      CL97255   2.592   8.610   8.941 -0.4351 -0.2832 -0.3753
32088CL      CL97256   0.272   9.821   4.773 -0.3661  0.1537  0.0598
32089CL      CL97257   5.564   4.646   1.978  0.3417  0.2323 -0.0987
32090CL      CL97258   7.864   3.262   8.771 -0.3908 -0.0441  0.2164
32091CL      CL97259   0.195   9.524   8.193  0.1596  0.4411  0.5985
   9.96401   9.96401   9.96401
